          64 PROCESSORS WORKING

         
 *******************************************************************************
 *                                                                             *
 *                               CRYSTAL14                                     *
 *                      public : 1.0.3 - Sep 1st, 2014                         *
 *                       HTTP://WWW.CRYSTAL.UNITO.IT                           *
 *                                                                             *
 *                              MAIN AUTHORS                                   *
 *                                                                             *
 *  R. DOVESI(1,11), V.R. SAUNDERS(2), C. ROETTI(1,11), R. ORLANDO(1,11),      *
 *  C.M. ZICOVICH-WILSON(1,3), F. PASCALE(4), B. CIVALLERI(1,11),              *
 *  K. DOLL(5), N.M. HARRISON(2,6), I. J. BUSH(7), Ph. D'ARCO(8),              *
 *  M. LLUNELL(9), M. CAUSA'(10), Y. NOEL(8)                                   *
 *                                                                             *
 *        CONTRIBUTIONS TO THE CURRENT RELEASE HAVE BEEN GIVEN BY              *
 *                                                                             *
 *  L. MASCHIO(1,11), S. CASASSA(1,11), A. ERBA(1,11), M. FERRABONE(1,11),     *
 *  M. DE LA PIERRE(1,11), M. FERRERO(1,11), V. LACIVITA(1,11),                *
 *  J. BAIMA(1,11), E. ALBANESE(1,11), M.F. PEINTINGER(12), R. BAST(13),       *
 *  M. RERAT(14), B. KIRTMAN(15), R. DEMICHELIS(1,16)                          *
 *                                                                             *
 * (1) THEORETICAL CHEMISTRY GROUP - UNIVERSITA' DI TORINO - TORINO (ITALY)    *
 *     http://www.crystal.unito.it                                             *
 * (2) COMPUTATIONAL SCIENCE & ENGINEERING DEPARTMENT - STFC DARESBURY (UK)    *
 *     http://www.stfc.ac.uk/CSE/randd/cmg/CRYSTAL/25806.aspx                  *
 * (3) UNIVERSIDAD AUTONOMA DEL ESTADO DE MORELOS - CUERNAVACA (MEXICO)        *
 * (4) UNIVERSITE' DE LORRAINE - NANCY (FRANCE)                                *
 * (5) UNIVERSITAET ULM - ULM (GERMANY); (6) IMPERIAL COLLEGE - LONDON (UK)    *
 * (7) NAG - OXFORD (UK); (8) UPMC - SORBONNE UNIVERSITES - PARIS (FRANCE)     *
 * (9) UNIVERSIDAD DE BARCELONA - BARCELONA (SPAIN)                            *
 *(10) UNIVERSITA' DI NAPOLI "FEDERICO II" - NAPOLI (ITALY)                    *
 *(11) NIS - NANOSTRUCTURED INTERFACES AND SURFACES - TORINO (ITALY)           *
 *(12) MPI FUER CHEMISCHE ENERGIEKONVERSION - MUELHEIM AN DER RUHR (GERMANY)   *
 *(13) UNIVERSITY OF STOCKHOLM - STOCKHOLM (SWEDEN)                            *
 *(14) UNIVERSITE' DE PAU ET DES PAYS DE L'ADOUR - PAU (FRANCE)                *
 *(15) UNIVERSITY OF CALIFORNIA SANTA BARBARA - SANTA BARBARA (USA)            *
 *(16) CURTIN UNIVERSITY - PERTH (AUSTRALIA)                                   *
 *                                                                             *
 ********************************************************************************
 EEEEEEEEEE STARTING  DATE 16 02 2020 TIME 14:52:58.2
 CaTiO3                                                                          

 CRYSTAL CALCULATION
 (INPUT ACCORDING TO THE INTERNATIONAL TABLES FOR X-RAY CRYSTALLOGRAPHY)
 CRYSTAL FAMILY                       :  ORTHORHOMBIC
 CRYSTAL CLASS  (GROTH - 1921)        :  ORTHORHOMBIC BIPYRAMIDAL             

 SPACE GROUP (CENTROSYMMETRIC)        :  P N M A         

 LATTICE PARAMETERS  (ANGSTROMS AND DEGREES) - CONVENTIONAL CELL
        A           B           C        ALPHA        BETA       GAMMA
     5.43880     7.63740     5.37770    90.00000    90.00000    90.00000


 NUMBER OF IRREDUCIBLE ATOMS IN THE CONVENTIONAL CELL:    4

 INPUT COORDINATES

 ATOM AT. N.              COORDINATES
   1  20     4.642000000000E-01  2.500000000000E-01  5.700000000000E-03
   2   8     5.178000000000E-01  2.500000000000E-01  5.753000000000E-01
   3   8     2.104000000000E-01  3.750000000000E-02  2.883000000000E-01
   4  22     0.000000000000E+00  0.000000000000E+00  0.000000000000E+00

 *******************************************************************************

 << INFORMATION >>: FROM NOW ON, ALL COORDINATES REFER TO THE PRIMITIVE CELL

 *******************************************************************************

 LATTICE PARAMETERS  (ANGSTROMS AND DEGREES) - PRIMITIVE CELL
       A          B          C         ALPHA     BETA     GAMMA        VOLUME
    5.43880    7.63740    5.37770    90.00000  90.00000  90.00000    223.380468

 COORDINATES OF THE EQUIVALENT ATOMS (FRACTIONAL UNITS)

 N. ATOM EQUIV AT. N.          X                  Y                  Z

   1   1   1   20 CA    4.64200000000E-01  2.50000000000E-01  5.70000000000E-03
   2   1   2   20 CA    3.58000000000E-02 -2.50000000000E-01 -4.94300000000E-01
   3   1   3   20 CA   -3.58000000000E-02  2.50000000000E-01  4.94300000000E-01
   4   1   4   20 CA   -4.64200000000E-01 -2.50000000000E-01 -5.70000000000E-03

   5   2   1    8 O    -4.82200000000E-01  2.50000000000E-01 -4.24700000000E-01
   6   2   2    8 O    -1.78000000000E-02 -2.50000000000E-01  7.53000000000E-02
   7   2   3    8 O     1.78000000000E-02  2.50000000000E-01 -7.53000000000E-02
   8   2   4    8 O     4.82200000000E-01 -2.50000000000E-01  4.24700000000E-01

   9   3   1    8 O     2.10400000000E-01  3.75000000000E-02  2.88300000000E-01
  10   3   2    8 O     2.89600000000E-01 -3.75000000000E-02 -2.11700000000E-01
  11   3   3    8 O    -2.89600000000E-01  4.62500000000E-01  2.11700000000E-01
  12   3   4    8 O    -2.10400000000E-01 -4.62500000000E-01 -2.88300000000E-01
  13   3   5    8 O    -2.10400000000E-01 -3.75000000000E-02 -2.88300000000E-01
  14   3   6    8 O    -2.89600000000E-01  3.75000000000E-02  2.11700000000E-01
  15   3   7    8 O     2.89600000000E-01 -4.62500000000E-01 -2.11700000000E-01
  16   3   8    8 O     2.10400000000E-01  4.62500000000E-01  2.88300000000E-01

  17   4   1   22 TI    0.00000000000E+00  0.00000000000E+00  0.00000000000E+00
  18   4   2   22 TI   -5.00000000000E-01  0.00000000000E+00 -5.00000000000E-01
  19   4   3   22 TI   -5.00000000000E-01 -5.00000000000E-01 -5.00000000000E-01
  20   4   4   22 TI    0.00000000000E+00 -5.00000000000E-01  0.00000000000E+00

 NUMBER OF SYMMETRY OPERATORS         :    8
 *******************************************************************************
 * GEOMETRY EDITING - INPUT COORDINATES ARE GIVEN IN ANGSTROM         
 *******************************************************************************

 GEOMETRY NOW FULLY CONSISTENT WITH THE GROUP

 REMOVAL OF SYMMOPS WITH FINITE TRANSLATIONAL COMPONENTS
 HAS REDUCED THEIR NUMBER FROM  8 TO  2

 *******************************************************************************
 * SUPERCELL OPTION
 *******************************************************************************


        EXPANSION MATRIX OF PRIMITIVE CELL
 E1    -1.000     1.000     1.000
 E2     1.000    -1.000     1.000
 E3     1.000     1.000    -1.000

 NUMBER OF ATOMS PER SUPERCELL   80

        DIRECT LATTICE VECTORS COMPONENTS (ANGSTROM)
 B1    -5.439     7.637     5.378
 B2     5.439    -7.637     5.378
 B3     5.439     7.637    -5.378

 LATTICE PARAMETERS  (ANGSTROM AND DEGREES)
       A          B          C         ALPHA     BETA     GAMMA        VOLUME
   10.80880   10.80880   10.80880   119.57841  90.08353 120.32657    893.521873


 **** ATOMS BELONGING TO THE SUPERCELL
 LABEL AT.NO.      COORDINATES (ANGSTROM AND FRACTIONAL)
     1    20     2.5247     1.9093     0.0307     0.1278     0.2349     0.3571
     2    20     2.5247     1.9093    -5.3470    -0.3722    -0.2651     0.3571
     3    20     2.5247    -5.7280     0.0307    -0.3722     0.2349    -0.1429
     4    20    -2.9141     1.9093     0.0307     0.1278    -0.2651    -0.1429
     5    20     0.1947    -1.9094    -2.6582    -0.3722    -0.2293    -0.1071
     6    20     0.1947    -1.9094     2.7195     0.1278     0.2707    -0.1071
     7    20     0.1947     5.7280    -2.6582     0.1278    -0.2293     0.3929
     8    20     5.6335    -1.9094    -2.6582    -0.3722     0.2707     0.3929
     9    20    -0.1947     1.9094     2.6582     0.3721     0.2292     0.1071
    10    20    -0.1947     1.9093    -2.7195    -0.1279    -0.2707     0.1071
    11    20    -0.1947    -5.7280     2.6582    -0.1278     0.2292    -0.3929
    12    20    -5.6335     1.9093     2.6582     0.3722    -0.2707    -0.3929
    13    20    -2.5247    -1.9093    -0.0307    -0.1279    -0.2349    -0.3571
    14    20    -2.5247    -1.9093     5.3470     0.3721     0.2650    -0.3571
    15    20    -2.5247     5.7280    -0.0307     0.3721    -0.2349     0.1429
    16    20     2.9141    -1.9093    -0.0307    -0.1278     0.2650     0.1429
    17     8    -2.6226     1.9094    -2.2839    -0.0874    -0.4535    -0.1161
    18     8    -2.6226     1.9093     3.0938     0.4126     0.0465    -0.1161
    19     8    -2.6226     9.5468    -2.2839     0.4126    -0.4535     0.3839
    20     8     2.8162     1.9094    -2.2839    -0.0873     0.0465     0.3839
    21     8    -0.0968    -1.9094     0.4049    -0.0874     0.0288    -0.1339
    22     8    -5.5356     5.7280     0.4049     0.4126    -0.4713    -0.1339
    23     8    -0.0968     5.7280     0.4049     0.4126     0.0288     0.3661
    24     8    -0.0968     5.7280    -4.9728    -0.0874    -0.4713     0.3661
    25     8     0.0968     1.9093    -0.4049     0.0873    -0.0288     0.1339
    26     8     5.5356    -5.7281    -0.4049    -0.4127     0.4712     0.1339
    27     8     0.0968    -5.7280    -0.4049    -0.4127    -0.0288    -0.3661
    28     8     0.0968    -5.7280     4.9728     0.0874     0.4712    -0.3661
    29     8     2.6226    -1.9093     2.2839     0.0874     0.4534     0.1161
    30     8     2.6226    -1.9094    -3.0938    -0.4127    -0.0466     0.1161
    31     8     2.6226    -9.5467     2.2839    -0.4126     0.4534    -0.3839
    32     8    -2.8162    -1.9093     2.2839     0.0874    -0.0466    -0.3839
    33     8     1.1443     0.2864     1.5504     0.1629     0.2493     0.1239
    34     8     1.1443     0.2864    -3.8273    -0.3371    -0.2507     0.1239
    35     8     1.1443    -7.3510     1.5504    -0.3371     0.2493    -0.3761
    36     8    -4.2945     0.2864     1.5504     0.1629    -0.2507    -0.3761
    37     8     1.5751    -0.2864    -1.1385    -0.1246     0.0389     0.1260
    38     8    -3.8637     7.3510    -1.1385     0.3754    -0.4611     0.1260
    39     8    -3.8637    -0.2864     4.2392     0.3754     0.0389    -0.3739
    40     8    -3.8637    -0.2864    -1.1385    -0.1246    -0.4611    -0.3740
    41     8    -1.5751     3.5323     1.1385     0.3371    -0.0390     0.0864
    42     8     3.8637    -4.1051     1.1385    -0.1629     0.4610     0.0864
    43     8    -1.5751    -4.1051     1.1385    -0.1629    -0.0390    -0.4136
    44     8    -1.5751    -4.1051     6.5162     0.3371     0.4610    -0.4136
    45     8    -1.1443    -3.5323    -1.5504    -0.3754    -0.2494    -0.3365
    46     8    -1.1443    -3.5323     3.8273     0.1246     0.2506    -0.3365
    47     8    -1.1443     4.1051    -1.5504     0.1246    -0.2494     0.1635
    48     8     4.2945    -3.5323    -1.5504    -0.3754     0.2506     0.1635
    49     8    -1.1443    -0.2864    -1.5504    -0.1629    -0.2494    -0.1240
    50     8    -1.1443    -0.2864     3.8273     0.3371     0.2506    -0.1240
    51     8    -1.1443     7.3510    -1.5504     0.3371    -0.2494     0.3760
    52     8     4.2945    -0.2864    -1.5504    -0.1629     0.2506     0.3760
    53     8    -1.5751     0.2864     1.1385     0.1246    -0.0390    -0.1261
    54     8     3.8637    -7.3510     1.1385    -0.3754     0.4610    -0.1261
    55     8     3.8637     0.2864    -4.2392    -0.3754    -0.0390     0.3739
    56     8     3.8637     0.2864     1.1385     0.1246     0.4610     0.3739
    57     8     1.5751    -3.5323    -1.1385    -0.3371     0.0389    -0.0865
    58     8    -3.8637     4.1051    -1.1385     0.1629    -0.4611    -0.0865
    59     8     1.5751     4.1051    -1.1385     0.1629     0.0389     0.4135
    60     8     1.5751     4.1051    -6.5162    -0.3371    -0.4611     0.4135
    61     8     1.1443     3.5323     1.5504     0.3754     0.2493     0.3364
    62     8     1.1443     3.5323    -3.8273    -0.1246    -0.2507     0.3364
    63     8     1.1443    -4.1051     1.5504    -0.1246     0.2493    -0.1636
    64     8    -4.2945     3.5323     1.5504     0.3754    -0.2507    -0.1636
    65    22     0.0000     0.0000     0.0000     0.0000     0.0000     0.0000
    66    22     0.0000    -0.0000     5.3777     0.5000     0.5000     0.0000
    67    22    -5.4388     0.0000     5.3777     0.5000     0.0000    -0.5000
    68    22     5.4388     0.0000     0.0000     0.0000     0.5000     0.5000
    69    22     2.7194    -7.6374     2.6888    -0.2500     0.5000    -0.2500
    70    22    -2.7194    -0.0000     2.6888     0.2500     0.0000    -0.2500
    71    22     2.7194     0.0000     2.6888     0.2500     0.5000     0.2500
    72    22     2.7194     0.0000    -2.6888    -0.2500     0.0000     0.2500
    73    22     2.7194     3.8187     2.6888     0.5000     0.5000     0.5000
    74    22     2.7194     3.8187    -2.6888     0.0000     0.0000     0.5000
    75    22     2.7194    -3.8187     2.6888     0.0000     0.5000     0.0000
    76    22    -2.7194     3.8187     2.6888     0.5000     0.0000     0.0000
    77    22     0.0000    -3.8187     0.0000    -0.2500     0.0000    -0.2500
    78    22     0.0000    -3.8187     5.3777     0.2500     0.5000    -0.2500
    79    22     0.0000     3.8187     0.0000     0.2500     0.0000     0.2500
    80    22     5.4388    -3.8187     0.0000    -0.2500     0.5000     0.2500

 **************************** SUPERCELL GENERATED ****************************
 INFORMATION **** NEW DEFAULT **** FINALRUN 4 FOR GEOMETRY OPTIMIZATIONS
 INFORMATION **** NEW DEFAULT **** OPTGEOM OPTIMIZES BOTH ATOMIC COORDINATES AND CELL PARAMETERS
 INFORMATION **** NEW DEFAULT **** TOL. ON ENERGY TO REDEFINE REF. GEOMETRY: 10**-3
 INFORMATION **** OPTGEOM ****  RESTARTING THE OPTIMISATION

 IMPORTANT INFORMATION:
 THE COORDINATE SYSTEM ADOPTED IN THE OPTIMIZATION IS NOT IN
 GENERAL HOMOGENEOUS UNITS. FOR THIS REASON THE GRADIENT AND 
 HESSIAN MATRIX IN TERMS OF THIS SYSTEM ARE GIVEN WITHOUT
 UNITS. FOR MORE DETAILS SEE THE MANUAL.

 *******************************************************************************
 COMBINED CELL/ATOM OPTIMIZATION CONTROL

 INITIAL TRUST RADIUS         0.50000 MAXIMUM TRUST RADIUS               4.00000
 MAXIMUM GRADIENT COMPONENT   0.00045 MAXIMUM DISPLACEMENT COMPONENT     0.00180
 R.M.S. OF GRADIENT COMPONENT 0.00030 R.M.S. OF DISPLACEMENT COMPONENTS  0.00120
 THRESHOLD ON ENERGY CHANGE 0.100E-06 EXTRAPOLATING POLYNOMIAL ORDER           2
 MAXIMUM ALLOWED NUMBER OF STEPS  100 SORTING OF ENERGY POINTS:               NO
 ANALYTICAL  GRADIENT                 HESSIAN UPDATING                      BFGS
 STEP SIZE NUMERICAL GRADIENT 0.00100
 INITIAL HESSIAN MATRIX: SCHLEGEL MODEL 2
 *******************************************************************************


 GCALCO - MAX INDICES DIRECT LATTICE VECTOR    14    16    14
 NO.OF VECTORS CREATED 6999 STARS  988 RMAX   216.38876 BOHR

 GEOMETRY FOR WAVE FUNCTION - DIMENSIONALITY OF THE SYSTEM    3
 (NON PERIODIC DIRECTION: LATTICE PARAMETER FORMALLY SET TO 500)
 *******************************************************************************
 LATTICE PARAMETERS (ANGSTROMS AND DEGREES) - BOHR = 0.5291772083 ANGSTROM
 PRIMITIVE CELL - CENTRING CODE 1/1 VOLUME=   893.521873 - DENSITY  4.039 g/cm^3
         A              B              C           ALPHA      BETA       GAMMA 
    10.80879649    10.80879649    10.80879649   119.578412  90.083530 120.326566
 *******************************************************************************
 ATOMS IN THE ASYMMETRIC UNIT   44 - ATOMS IN THE UNIT CELL:   80
     ATOM              X/A                 Y/B                 Z/C    
 *******************************************************************************
   1 T  20 CA    1.278500000000E-01  2.349500000000E-01  3.571000000000E-01
   2 T  20 CA   -3.721500000000E-01 -2.650500000000E-01  3.571000000000E-01
   3 T  20 CA   -3.721500000000E-01  2.349500000000E-01 -1.429000000000E-01
   4 T  20 CA    1.278500000000E-01 -2.650500000000E-01 -1.429000000000E-01
   5 T  20 CA   -3.721500000000E-01 -2.292500000000E-01 -1.071000000000E-01
   6 T  20 CA    1.278500000000E-01  2.707500000000E-01 -1.071000000000E-01
   7 T  20 CA    1.278500000000E-01 -2.292500000000E-01  3.929000000000E-01
   8 T  20 CA   -3.721500000000E-01  2.707500000000E-01  3.929000000000E-01
   9 F  20 CA    3.721500000000E-01  2.292500000000E-01  1.071000000000E-01
  10 F  20 CA   -1.278500000000E-01 -2.707500000000E-01  1.071000000000E-01
  11 F  20 CA   -1.278500000000E-01  2.292500000000E-01 -3.929000000000E-01
  12 F  20 CA    3.721500000000E-01 -2.707500000000E-01 -3.929000000000E-01
  13 F  20 CA   -1.278500000000E-01 -2.349500000000E-01 -3.571000000000E-01
  14 F  20 CA    3.721500000000E-01  2.650500000000E-01 -3.571000000000E-01
  15 F  20 CA    3.721500000000E-01 -2.349500000000E-01  1.429000000000E-01
  16 F  20 CA   -1.278500000000E-01  2.650500000000E-01  1.429000000000E-01
  17 T   8 O    -8.735000000000E-02 -4.534500000000E-01 -1.161000000000E-01
  18 T   8 O     4.126500000000E-01  4.655000000000E-02 -1.161000000000E-01
  19 T   8 O     4.126500000000E-01 -4.534500000000E-01  3.839000000000E-01
  20 T   8 O    -8.735000000000E-02  4.655000000000E-02  3.839000000000E-01
  21 T   8 O    -8.735000000000E-02  2.875000000000E-02 -1.339000000000E-01
  22 T   8 O     4.126500000000E-01 -4.712500000000E-01 -1.339000000000E-01
  23 T   8 O     4.126500000000E-01  2.875000000000E-02  3.661000000000E-01
  24 T   8 O    -8.735000000000E-02 -4.712500000000E-01  3.661000000000E-01
  25 F   8 O     8.735000000000E-02 -2.875000000000E-02  1.339000000000E-01
  26 F   8 O    -4.126500000000E-01  4.712500000000E-01  1.339000000000E-01
  27 F   8 O    -4.126500000000E-01 -2.875000000000E-02 -3.661000000000E-01
  28 F   8 O     8.735000000000E-02  4.712500000000E-01 -3.661000000000E-01
  29 F   8 O     8.735000000000E-02  4.534500000000E-01  1.161000000000E-01
  30 F   8 O    -4.126500000000E-01 -4.655000000000E-02  1.161000000000E-01
  31 F   8 O    -4.126500000000E-01  4.534500000000E-01 -3.839000000000E-01
  32 F   8 O     8.735000000000E-02 -4.655000000000E-02 -3.839000000000E-01
  33 T   8 O     1.629000000000E-01  2.493500000000E-01  1.239500000000E-01
  34 T   8 O    -3.371000000000E-01 -2.506500000000E-01  1.239500000000E-01
  35 T   8 O    -3.371000000000E-01  2.493500000000E-01 -3.760500000000E-01
  36 T   8 O     1.629000000000E-01 -2.506500000000E-01 -3.760500000000E-01
  37 T   8 O    -1.246000000000E-01  3.895000000000E-02  1.260500000000E-01
  38 T   8 O     3.754000000000E-01 -4.610500000000E-01  1.260500000000E-01
  39 T   8 O     3.754000000000E-01  3.895000000000E-02 -3.739500000000E-01
  40 T   8 O    -1.246000000000E-01 -4.610500000000E-01 -3.739500000000E-01
  41 T   8 O     3.371000000000E-01 -3.895000000000E-02  8.645000000000E-02
  42 T   8 O    -1.629000000000E-01  4.610500000000E-01  8.645000000000E-02
  43 T   8 O    -1.629000000000E-01 -3.895000000000E-02 -4.135500000000E-01
  44 T   8 O     3.371000000000E-01  4.610500000000E-01 -4.135500000000E-01
  45 T   8 O    -3.754000000000E-01 -2.493500000000E-01 -3.364500000000E-01
  46 T   8 O     1.246000000000E-01  2.506500000000E-01 -3.364500000000E-01
  47 T   8 O     1.246000000000E-01 -2.493500000000E-01  1.635500000000E-01
  48 T   8 O    -3.754000000000E-01  2.506500000000E-01  1.635500000000E-01
  49 F   8 O    -1.629000000000E-01 -2.493500000000E-01 -1.239500000000E-01
  50 F   8 O     3.371000000000E-01  2.506500000000E-01 -1.239500000000E-01
  51 F   8 O     3.371000000000E-01 -2.493500000000E-01  3.760500000000E-01
  52 F   8 O    -1.629000000000E-01  2.506500000000E-01  3.760500000000E-01
  53 F   8 O     1.246000000000E-01 -3.895000000000E-02 -1.260500000000E-01
  54 F   8 O    -3.754000000000E-01  4.610500000000E-01 -1.260500000000E-01
  55 F   8 O    -3.754000000000E-01 -3.895000000000E-02  3.739500000000E-01
  56 F   8 O     1.246000000000E-01  4.610500000000E-01  3.739500000000E-01
  57 F   8 O    -3.371000000000E-01  3.895000000000E-02 -8.645000000000E-02
  58 F   8 O     1.629000000000E-01 -4.610500000000E-01 -8.645000000000E-02
  59 F   8 O     1.629000000000E-01  3.895000000000E-02  4.135500000000E-01
  60 F   8 O    -3.371000000000E-01 -4.610500000000E-01  4.135500000000E-01
  61 F   8 O     3.754000000000E-01  2.493500000000E-01  3.364500000000E-01
  62 F   8 O    -1.246000000000E-01 -2.506500000000E-01  3.364500000000E-01
  63 F   8 O    -1.246000000000E-01  2.493500000000E-01 -1.635500000000E-01
  64 F   8 O     3.754000000000E-01 -2.506500000000E-01 -1.635500000000E-01
  65 T  22 TI    0.000000000000E+00  0.000000000000E+00  0.000000000000E+00
  66 T  22 TI   -5.000000000000E-01 -5.000000000000E-01 -1.732061934853E-17
  67 T  22 TI   -5.000000000000E-01  0.000000000000E+00 -5.000000000000E-01
  68 T  22 TI    0.000000000000E+00 -5.000000000000E-01 -5.000000000000E-01
  69 T  22 TI   -2.500000000000E-01 -5.000000000000E-01 -2.500000000000E-01
  70 T  22 TI    2.500000000000E-01  5.551115123126E-17 -2.500000000000E-01
  71 F  22 TI    2.500000000000E-01 -5.000000000000E-01  2.500000000000E-01
  72 F  22 TI   -2.500000000000E-01  0.000000000000E+00  2.500000000000E-01
  73 T  22 TI   -5.000000000000E-01 -5.000000000000E-01 -5.000000000000E-01
  74 T  22 TI    0.000000000000E+00  0.000000000000E+00 -5.000000000000E-01
  75 T  22 TI    2.775557561563E-17 -5.000000000000E-01  1.110223024625E-16
  76 T  22 TI   -5.000000000000E-01  5.551115123126E-17 -5.551115123126E-17
  77 T  22 TI   -2.500000000000E-01  0.000000000000E+00 -2.500000000000E-01
  78 T  22 TI    2.500000000000E-01 -5.000000000000E-01 -2.500000000000E-01
  79 F  22 TI    2.500000000000E-01  0.000000000000E+00  2.500000000000E-01
  80 F  22 TI   -2.500000000000E-01 -5.000000000000E-01  2.500000000000E-01

 T = ATOM BELONGING TO THE ASYMMETRIC UNIT

 ****    2 SYMMOPS - TRANSLATORS IN FRACTIONAL UNITS
 **** MATRICES AND TRANSLATORS IN THE CRYSTALLOGRAPHIC REFERENCE FRAME
   V INV                    ROTATION MATRICES                   TRANSLATORS
   1   1  1.00  0.00  0.00  0.00  1.00  0.00  0.00  0.00  1.00  0.00  0.00  0.00
   2   2 -1.00  0.00 -0.00  0.00 -1.00  0.00  0.00  0.00 -1.00  0.00  0.00  0.00

 DIRECT LATTICE VECTORS CARTESIAN COMPONENTS (ANGSTROM)
          X                    Y                    Z
  -0.543880000000E+01   0.763740000000E+01   0.537770000000E+01
   0.543880000000E+01  -0.763740000000E+01   0.537770000000E+01
   0.543880000000E+01   0.763740000000E+01  -0.537770000000E+01


 CARTESIAN COORDINATES - PRIMITIVE CELL
 *******************************************************************************
 *      ATOM          X(ANGSTROM)         Y(ANGSTROM)         Z(ANGSTROM)
 *******************************************************************************
    1    20 CA    2.524690960000E+00  1.909350000000E+00  3.065289000000E-02
    2    20 CA    2.524690960000E+00  1.909350000000E+00 -5.347047110000E+00
    3    20 CA    2.524690960000E+00 -5.728050000000E+00  3.065289000000E-02
    4    20 CA   -2.914109040000E+00  1.909350000000E+00  3.065289000000E-02
    5    20 CA    1.947090400000E-01 -1.909350000000E+00 -2.658197110000E+00
    6    20 CA    1.947090400000E-01 -1.909350000000E+00  2.719502890000E+00
    7    20 CA    1.947090400000E-01  5.728050000000E+00 -2.658197110000E+00
    8    20 CA    5.633509040000E+00 -1.909350000000E+00 -2.658197110000E+00
    9    20 CA   -1.947090400000E-01  1.909350000000E+00  2.658197110000E+00
   10    20 CA   -1.947090400000E-01  1.909350000000E+00 -2.719502890000E+00
   11    20 CA   -1.947090400000E-01 -5.728050000000E+00  2.658197110000E+00
   12    20 CA   -5.633509040000E+00  1.909350000000E+00  2.658197110000E+00
   13    20 CA   -2.524690960000E+00 -1.909350000000E+00 -3.065289000000E-02
   14    20 CA   -2.524690960000E+00 -1.909350000000E+00  5.347047110000E+00
   15    20 CA   -2.524690960000E+00  5.728050000000E+00 -3.065289000000E-02
   16    20 CA    2.914109040000E+00 -1.909350000000E+00 -3.065289000000E-02
   17     8 O    -2.622589360000E+00  1.909350000000E+00 -2.283909190000E+00
   18     8 O    -2.622589360000E+00  1.909350000000E+00  3.093790810000E+00
   19     8 O    -2.622589360000E+00  9.546750000000E+00 -2.283909190000E+00
   20     8 O     2.816210640000E+00  1.909350000000E+00 -2.283909190000E+00
   21     8 O    -9.681064000000E-02 -1.909350000000E+00  4.049408100000E-01
   22     8 O    -5.535610640000E+00  5.728050000000E+00  4.049408100000E-01
   23     8 O    -9.681064000000E-02  5.728050000000E+00  4.049408100000E-01
   24     8 O    -9.681064000000E-02  5.728050000000E+00 -4.972759190000E+00
   25     8 O     9.681064000000E-02  1.909350000000E+00 -4.049408100000E-01
   26     8 O     5.535610640000E+00 -5.728050000000E+00 -4.049408100000E-01
   27     8 O     9.681064000000E-02 -5.728050000000E+00 -4.049408100000E-01
   28     8 O     9.681064000000E-02 -5.728050000000E+00  4.972759190000E+00
   29     8 O     2.622589360000E+00 -1.909350000000E+00  2.283909190000E+00
   30     8 O     2.622589360000E+00 -1.909350000000E+00 -3.093790810000E+00
   31     8 O     2.622589360000E+00 -9.546750000000E+00  2.283909190000E+00
   32     8 O    -2.816210640000E+00 -1.909350000000E+00  2.283909190000E+00
   33     8 O     1.144323520000E+00  2.864025000000E-01  1.550390910000E+00
   34     8 O     1.144323520000E+00  2.864025000000E-01 -3.827309090000E+00
   35     8 O     1.144323520000E+00 -7.350997500000E+00  1.550390910000E+00
   36     8 O    -4.294476480000E+00  2.864025000000E-01  1.550390910000E+00
   37     8 O     1.575076480000E+00 -2.864025000000E-01 -1.138459090000E+00
   38     8 O    -3.863723520000E+00  7.350997500000E+00 -1.138459090000E+00
   39     8 O    -3.863723520000E+00 -2.864025000000E-01  4.239240910000E+00
   40     8 O    -3.863723520000E+00 -2.864025000000E-01 -1.138459090000E+00
   41     8 O    -1.575076480000E+00  3.532297500000E+00  1.138459090000E+00
   42     8 O     3.863723520000E+00 -4.105102500000E+00  1.138459090000E+00
   43     8 O    -1.575076480000E+00 -4.105102500000E+00  1.138459090000E+00
   44     8 O    -1.575076480000E+00 -4.105102500000E+00  6.516159090000E+00
   45     8 O    -1.144323520000E+00 -3.532297500000E+00 -1.550390910000E+00
   46     8 O    -1.144323520000E+00 -3.532297500000E+00  3.827309090000E+00
   47     8 O    -1.144323520000E+00  4.105102500000E+00 -1.550390910000E+00
   48     8 O     4.294476480000E+00 -3.532297500000E+00 -1.550390910000E+00
   49     8 O    -1.144323520000E+00 -2.864025000000E-01 -1.550390910000E+00
   50     8 O    -1.144323520000E+00 -2.864025000000E-01  3.827309090000E+00
   51     8 O    -1.144323520000E+00  7.350997500000E+00 -1.550390910000E+00
   52     8 O     4.294476480000E+00 -2.864025000000E-01 -1.550390910000E+00
   53     8 O    -1.575076480000E+00  2.864025000000E-01  1.138459090000E+00
   54     8 O     3.863723520000E+00 -7.350997500000E+00  1.138459090000E+00
   55     8 O     3.863723520000E+00  2.864025000000E-01 -4.239240910000E+00
   56     8 O     3.863723520000E+00  2.864025000000E-01  1.138459090000E+00
   57     8 O     1.575076480000E+00 -3.532297500000E+00 -1.138459090000E+00
   58     8 O    -3.863723520000E+00  4.105102500000E+00 -1.138459090000E+00
   59     8 O     1.575076480000E+00  4.105102500000E+00 -1.138459090000E+00
   60     8 O     1.575076480000E+00  4.105102500000E+00 -6.516159090000E+00
   61     8 O     1.144323520000E+00  3.532297500000E+00  1.550390910000E+00
   62     8 O     1.144323520000E+00  3.532297500000E+00 -3.827309090000E+00
   63     8 O     1.144323520000E+00 -4.105102500000E+00  1.550390910000E+00
   64     8 O    -4.294476480000E+00  3.532297500000E+00  1.550390910000E+00
   65    22 TI    0.000000000000E+00  0.000000000000E+00  0.000000000000E+00
   66    22 TI   -9.420338451280E-17 -1.322844982125E-16  5.377700000000E+00
   67    22 TI    0.000000000000E+00  7.637400000000E+00  0.000000000000E+00
   68    22 TI    5.438800000000E+00  0.000000000000E+00  0.000000000000E+00
   69    22 TI    2.719400000000E+00 -7.637400000000E+00  2.688850000000E+00
   70    22 TI   -2.719400000000E+00 -1.175009441523E-15  2.688850000000E+00
   71    22 TI    2.719400000000E+00  7.050056649138E-16  2.688850000000E+00
   72    22 TI    2.719400000000E+00  4.700037766092E-16 -2.688850000000E+00
   73    22 TI    2.719400000000E+00  3.818700000000E+00  2.688850000000E+00
   74    22 TI    2.719400000000E+00  3.818700000000E+00 -2.688850000000E+00
   75    22 TI    2.719400000000E+00 -3.818700000000E+00  2.688850000000E+00
   76    22 TI   -2.719400000000E+00  3.818700000000E+00  2.688850000000E+00
   77    22 TI    0.000000000000E+00 -3.818700000000E+00  0.000000000000E+00
   78    22 TI    0.000000000000E+00 -3.818700000000E+00  5.377700000000E+00
   79    22 TI    0.000000000000E+00  3.818700000000E+00  0.000000000000E+00
   80    22 TI    5.438800000000E+00 -3.818700000000E+00 -4.700037766092E-16

 *******************************************************************************
 * ATOMS TRANSFORMED INTO GHOSTS :   1
  17(  8)
 SYMMETRY MAY BE BROKEN
 THE NUMBER OF SYMMETRY OPERATORS HAS BEEN REDUCED FROM  2 TO  1
 *******************************************************************************

 *******************************************************************************
 LOCAL ATOMIC FUNCTIONS BASIS SET
 *******************************************************************************
   ATOM   X(AU)   Y(AU)   Z(AU)  N. TYPE  EXPONENT  S COEF   P COEF   D/F/G COEF
 *******************************************************************************
   1 CA   4.771   3.608   0.058
                                  1 S  
                                         1.913E+05 2.204E-04 0.000E+00 0.000E+00
                                         2.697E+04 1.925E-03 0.000E+00 0.000E+00
                                         5.696E+03 1.109E-02 0.000E+00 0.000E+00
                                         1.489E+03 4.995E-02 0.000E+00 0.000E+00
                                         4.483E+02 1.701E-01 0.000E+00 0.000E+00
                                         1.546E+02 3.685E-01 0.000E+00 0.000E+00
                                         6.037E+01 4.034E-01 0.000E+00 0.000E+00
                                         2.509E+01 1.452E-01 0.000E+00 0.000E+00
                             2-   5 SP 
                                         4.486E+02-5.750E-03 8.470E-03 0.000E+00
                                         1.057E+02-7.670E-02 6.027E-02 0.000E+00
                                         3.469E+01-1.122E-01 2.124E-01 0.000E+00
                                         1.350E+01 2.537E-01 3.771E-01 0.000E+00
                                         5.820E+00 6.880E-01 4.010E-01 0.000E+00
                                         1.819E+00 3.490E-01 1.980E-01 0.000E+00
                             6-   9 SP 
                                         2.075E+01-2.000E-03-3.650E-02 0.000E+00
                                         8.400E+00-1.255E-01-6.850E-02 0.000E+00
                                         3.597E+00-6.960E-01 1.570E-01 0.000E+00
                                         1.408E+00 1.029E+00 1.482E+00 0.000E+00
                                         7.260E-01 9.440E-01 1.025E+00 0.000E+00
                            10-  13 SP 
                                         4.530E-01 1.000E+00 1.000E+00 0.000E+00
                            14-  17 SP 
                                         2.950E-01 1.000E+00 1.000E+00 0.000E+00
                            18-  22 D  
                                         3.191E+00 0.000E+00 0.000E+00 1.600E-01
                                         8.683E-01 0.000E+00 0.000E+00 3.130E-01
                            23-  27 D  
                                         2.891E-01 0.000E+00 0.000E+00 4.060E-01
   2 CA   4.771   3.608 -10.104
   3 CA   4.771 -10.824   0.058
   4 CA  -5.507   3.608   0.058
   5 CA   0.368  -3.608  -5.023
   6 CA   0.368  -3.608   5.139
   7 CA   0.368  10.824  -5.023
   8 CA  10.646  -3.608  -5.023
   9 CA  -0.368   3.608   5.023
  10 CA  -0.368   3.608  -5.139
  11 CA  -0.368 -10.824   5.023
  12 CA -10.646   3.608   5.023
  13 CA  -4.771  -3.608  -0.058
  14 CA  -4.771  -3.608  10.104
  15 CA  -4.771  10.824  -0.058
  16 CA   5.507  -3.608  -0.058
  17 XX  -4.956   3.608  -4.316
                                433 S  
                                         8.020E+03 1.080E-03 0.000E+00 0.000E+00
                                         1.338E+03 8.040E-03 0.000E+00 0.000E+00
                                         2.554E+02 5.324E-02 0.000E+00 0.000E+00
                                         6.922E+01 1.681E-01 0.000E+00 0.000E+00
                                         2.390E+01 3.581E-01 0.000E+00 0.000E+00
                                         9.264E+00 3.855E-01 0.000E+00 0.000E+00
                                         3.851E+00 1.468E-01 0.000E+00 0.000E+00
                                         1.212E+00 7.280E-02 0.000E+00 0.000E+00
                           434- 437 SP 
                                         4.943E+01-8.830E-03 9.580E-03 0.000E+00
                                         1.047E+01-9.150E-02 6.960E-02 0.000E+00
                                         3.235E+00-4.020E-02 2.065E-01 0.000E+00
                                         1.217E+00 3.790E-01 3.470E-01 0.000E+00
                           438- 441 SP 
                                         5.000E-01 1.000E+00 1.000E+00 0.000E+00
                           442- 445 SP 
                                         1.910E-01 1.000E+00 1.000E+00 0.000E+00
                           446- 450 D  
                                         5.000E-01 0.000E+00 0.000E+00 1.000E+00
  18 O   -4.956   3.608   5.846
  19 O   -4.956  18.041  -4.316
  20 O    5.322   3.608  -4.316
  21 O   -0.183  -3.608   0.765
  22 O  -10.461  10.824   0.765
  23 O   -0.183  10.824   0.765
  24 O   -0.183  10.824  -9.397
  25 O    0.183   3.608  -0.765
  26 O   10.461 -10.824  -0.765
  27 O    0.183 -10.824  -0.765
  28 O    0.183 -10.824   9.397
  29 O    4.956  -3.608   4.316
  30 O    4.956  -3.608  -5.846
  31 O    4.956 -18.041   4.316
  32 O   -5.322  -3.608   4.316
  33 O    2.162   0.541   2.930
  34 O    2.162   0.541  -7.233
  35 O    2.162 -13.891   2.930
  36 O   -8.115   0.541   2.930
  37 O    2.976  -0.541  -2.151
  38 O   -7.301  13.891  -2.151
  39 O   -7.301  -0.541   8.011
  40 O   -7.301  -0.541  -2.151
  41 O   -2.976   6.675   2.151
  42 O    7.301  -7.758   2.151
  43 O   -2.976  -7.758   2.151
  44 O   -2.976  -7.758  12.314
  45 O   -2.162  -6.675  -2.930
  46 O   -2.162  -6.675   7.233
  47 O   -2.162   7.758  -2.930
  48 O    8.115  -6.675  -2.930
  49 O   -2.162  -0.541  -2.930
  50 O   -2.162  -0.541   7.233
  51 O   -2.162  13.891  -2.930
  52 O    8.115  -0.541  -2.930
  53 O   -2.976   0.541   2.151
  54 O    7.301 -13.891   2.151
  55 O    7.301   0.541  -8.011
  56 O    7.301   0.541   2.151
  57 O    2.976  -6.675  -2.151
  58 O   -7.301   7.758  -2.151
  59 O    2.976   7.758  -2.151
  60 O    2.976   7.758 -12.314
  61 O    2.162   6.675   2.930
  62 O    2.162   6.675  -7.233
  63 O    2.162  -7.758   2.930
  64 O   -8.115   6.675   2.930
  65 TI   0.000   0.000   0.000
                               1297 S  
                                         2.253E+05 2.280E-04 0.000E+00 0.000E+00
                                         3.232E+04 1.929E-03 0.000E+00 0.000E+00
                                         6.884E+03 1.110E-02 0.000E+00 0.000E+00
                                         1.802E+03 5.000E-02 0.000E+00 0.000E+00
                                         5.431E+02 1.701E-01 0.000E+00 0.000E+00
                                         1.875E+02 3.690E-01 0.000E+00 0.000E+00
                                         7.321E+01 4.033E-01 0.000E+00 0.000E+00
                                         3.037E+01 1.445E-01 0.000E+00 0.000E+00
                          1298-1301 SP 
                                         5.540E+02-5.900E-03 8.500E-03 0.000E+00
                                         1.325E+02-6.830E-02 6.030E-02 0.000E+00
                                         4.368E+01-1.245E-01 2.124E-01 0.000E+00
                                         1.722E+01 2.532E-01 3.902E-01 0.000E+00
                                         7.225E+00 6.261E-01 4.097E-01 0.000E+00
                                         2.412E+00 2.820E-01 2.181E-01 0.000E+00
                          1302-1305 SP 
                                         2.450E+01 1.750E-02-2.070E-02 0.000E+00
                                         1.148E+01-2.277E-01-6.530E-02 0.000E+00
                                         4.465E+00-7.946E-01 1.919E-01 0.000E+00
                                         1.890E+00 1.011E+00 1.378E+00 0.000E+00
                          1306-1309 SP 
                                         8.074E-01 1.000E+00 1.000E+00 0.000E+00
                          1310-1313 SP 
                                         3.392E-01 1.000E+00 1.000E+00 0.000E+00
                          1314-1318 D  
                                         8.845E+00 0.000E+00 0.000E+00 1.508E-01
                                         2.734E+00 0.000E+00 0.000E+00 3.972E-01
                                         1.113E+00 0.000E+00 0.000E+00 5.353E-01
                          1319-1323 D  
                                         9.000E-01 0.000E+00 0.000E+00 1.000E+00
                          1324-1328 D  
                                         3.000E-01 0.000E+00 0.000E+00 1.000E+00
                          1329-1335 F  
                                         9.000E-01 0.000E+00 0.000E+00 1.000E+00
  66 TI  -0.000  -0.000  10.162
  67 TI   0.000  14.433   0.000
  68 TI  10.278   0.000   0.000
  69 TI   5.139 -14.433   5.081
  70 TI  -5.139  -0.000   5.081
  71 TI   5.139   0.000   5.081
  72 TI   5.139   0.000  -5.081
  73 TI   5.139   7.216   5.081
  74 TI   5.139   7.216  -5.081
  75 TI   5.139  -7.216   5.081
  76 TI  -5.139   7.216   5.081
  77 TI   0.000  -7.216   0.000
  78 TI   0.000  -7.216  10.162
  79 TI   0.000   7.216   0.000
  80 TI  10.278  -7.216  -0.000
 INFORMATION **** SET_MPP **** PCRYSTAL CALCULATION
 INFORMATION **** READM2 **** NEW DEFAULT: FOCK/KS MATRIX MIXING SET TO 30 %
 INFORMATION **** READM2 **** NEW DEFAULT: FULL DIRECT SCF MODE
 INFORMATION **** READM2 **** NEW DEFAULT: COULOMB BIPOLAR BUFFER SET TO 32 Mb
 INFORMATION **** READM2 **** NEW DEFAULT: EXCHANGE BIPOLAR BUFFER SET TO 32 Mb

 *******************************************************************************
 NEW DEFAULT: DFT INTEGRATION GRID INCREASED TO XLGRID
 NEW DEFAULT: LEVEL SHIFTER 6 0
 IF THE SYSTEM IS A METAL USE KEYWORD NOSHIFT
 *******************************************************************************


 MODIFIED BROYDEN MIXING OF THE FOCK MATRIX
 WO PARAMETER(D.D. Johnson, PRB38, 12807,(1988)             1.0000E-04
 % OF FOCK/KS MATRICES MIXING WHEN BROYDEN METHOD IS ON             50
 NUMBER OF SCF ITERATIONS AFTER WHICH BROYDEN METHOD IS ACTIVE       5
 INFORMATION **** READM2 **** LEVEL SHIFTING DISABLED BY BROYDEN
 INFORMATION **** MAXCYCLE **** MAX NUMBER OF SCF CYCLES SET TO         100

 GHOST ATOMS - REMOVAL OF NUCLEAR CHARGE AND ELECTRONS
 TOTAL NUCLEAR CHARGE        1.048000E+03
 TOTAL ELECTRONIC CHARGE     1.048000E+03
 *******************************************************************************
 N. OF ATOMS PER CELL        80  COULOMB OVERLAP TOL         (T1) 10**   -6
 NUMBER OF SHELLS           496  COULOMB PENETRATION TOL     (T2) 10**   -6
 NUMBER OF AO              1920  EXCHANGE OVERLAP TOL        (T3) 10**   -6
 N. OF ELECTRONS PER CELL  1048  EXCHANGE PSEUDO OVP (F(G))  (T4) 10**   -6
 CORE ELECTRONS PER CELL    670  EXCHANGE PSEUDO OVP (P(G))  (T5) 10**  -12
 N. OF SYMMETRY OPERATORS     1  POLE ORDER IN MONO ZONE                  4
 *******************************************************************************
 TYPE OF CALCULATION :  RESTRICTED CLOSED SHELL
 KOHN-SHAM HAMILTONIAN

 (EXCHANGE)[CORRELATION] FUNCTIONAL:(PERDEW-BURKE-ERNZERHOF)[PERDEW-BURKE-ERNZERHOF]


 HYBRID EXCHANGE - PERCENTAGE OF FOCK EXCHANGE    25.0000

 CAPPA:IS1  3;IS2  3;IS3  3; K PTS MONK NET  14; SYMMOPS:K SPACE   2;G SPACE   1

 *******************************************************************************
 MAX NUMBER OF SCF CYCLES     100  CONVERGENCE ON DELTAP        10**-16
 WEIGHT OF F(I) IN F(I+1)      80% CONVERGENCE ON ENERGY        10**- 7
 SHRINK. FACT.(MONKH.)    3  3  3  NUMBER OF K POINTS IN THE IBZ     14
 SHRINKING FACTOR(GILAT NET)    3  NUMBER OF K POINTS(GILAT NET)     14
 *******************************************************************************
 *** K POINTS COORDINATES (OBLIQUE COORDINATES IN UNITS OF IS =  3)
   1-R(  0  0  0)   2-C(  1  0  0)   3-C(  0  1  0)   4-C(  1  1  0)
   5-C(  2  1  0)   6-C(  0  0  1)   7-C(  1  0  1)   8-C(  2  0  1)
   9-C(  0  1  1)  10-C(  1  1  1)  11-C(  2  1  1)  12-C(  0  2  1)
  13-C(  1  2  1)  14-C(  2  2  1)

 DIRECT LATTICE VECTORS COMPON. (A.U.)     RECIP. LATTICE VECTORS COMPON. (A.U.) 
        X            Y            Z              X            Y            Z
  -10.2778425   14.4325944   10.1623802      0.0000000    0.2176735    0.3091395
   10.2778425  -14.4325944   10.1623802      0.3056665    0.0000000    0.3091395
   10.2778425   14.4325944  -10.1623802      0.3056665    0.2176735    0.0000000

 DISK SPACE FOR EIGENVECTORS (FTN 10)    99532800 REALS

 SYMMETRY ADAPTION OF THE BLOCH FUNCTIONS DISABLED
 TTTTTTTTTTTTTTTTTTTTTTTTTTTTTT gordsh1     TELAPSE       20.55 TCPU        0.14

 MATRIX SIZE: P(G) 3145472, F(G)  560208, P(G) IRR 1576944, F(G) IRR  563456
 MAX G-VECTOR INDEX FOR 1- AND 2-ELECTRON INTEGRALS  67

 TTTTTTTTTTTTTTTTTTTTTTTTTTTTTT INPUT       TELAPSE       20.77 TCPU        0.36

 NEIGHBORS OF THE NON-EQUIVALENT ATOMS

 N = NUMBER OF NEIGHBORS AT DISTANCE R
    ATOM  N     R/ANG      R/AU   NEIGHBORS (ATOM LABELS AND CELL INDICES)
   1 CA   1     2.3328     4.4084   20 O    0 0 0
   1 CA   2     2.3779     4.4935   44 O    0 0 1   56 O    0 0 0
   1 CA   1     2.4666     4.6613   25 O    0 0 0
   1 CA   2     2.6171     4.9455   33 O    0 0 0   61 O    0 0 0
   1 CA   2     2.6627     5.0318   37 O    0 0 0   59 O    0 0 0
   1 CA   1     3.0423     5.7490   28 O    0 0 1

   2 CA   1     2.3328     4.4084   19 O   -1 0 0
   2 CA   2     2.3779     4.4935   43 O    0 0 1   55 O    0 0 0
   2 CA   1     2.4666     4.6613   26 O    0-1 0
   2 CA   2     2.6171     4.9455   34 O    0 0 0   62 O    0 0 0
   2 CA   2     2.6627     5.0318   38 O   -1 0 0   60 O    0 0 0
   2 CA   1     3.0423     5.7490   27 O    0 0 1

   3 CA   1     2.3328     4.4084   18 O   -1 0 0
   3 CA   2     2.3779     4.4935   42 O    0 0 0   54 O    0 0 0
   3 CA   1     2.4666     4.6613   27 O    0 0 0
   3 CA   2     2.6171     4.9455   35 O    0 0 0   63 O    0 0 0
   3 CA   2     2.6627     5.0318   39 O   -1 0 0   57 O    0 0 0
   3 CA   1     3.0423     5.7490   26 O    0 0 0

   4 CA   1     2.3328     4.4084   17 XX   0 0 0
   4 CA   2     2.3779     4.4935   41 O    0 0 0   53 O    0 0 0
   4 CA   1     2.4666     4.6613   28 O    0-1 0
   4 CA   2     2.6171     4.9455   36 O    0 0 0   64 O    0 0 0
   4 CA   2     2.6627     5.0318   40 O    0 0 0   58 O    0 0 0
   4 CA   1     3.0423     5.7490   25 O    0 0 0

   5 CA   1     2.3328     4.4084   22 O   -1 0 0
   5 CA   2     2.3779     4.4935   45 O    0 0 0   49 O    0 0 0
   5 CA   1     2.4666     4.6613   30 O    0 0 0
   5 CA   2     2.6171     4.9455   37 O    0 0 0   57 O    0 0 0
   5 CA   2     2.6627     5.0318   34 O    0 0 0   64 O   -1 0 0
   5 CA   1     3.0423     5.7490   31 O    0-1 0

   6 CA   1     2.3328     4.4084   21 O    0 0 0
   6 CA   2     2.3779     4.4935   46 O    0 0 0   50 O    0 0 0
   6 CA   1     2.4666     4.6613   29 O    0 0 0
   6 CA   2     2.6171     4.9455   38 O    0 1 0   58 O    0 1 0
   6 CA   2     2.6627     5.0318   33 O    0 0 0   63 O    0 0 0
   6 CA   1     3.0423     5.7490   32 O    0 0 0

   7 CA   1     2.3328     4.4084   24 O    0 0 0
   7 CA   2     2.3779     4.4935   47 O    0 0 0   51 O    0 0 0
   7 CA   1     2.4666     4.6613   32 O    0 0 1
   7 CA   2     2.6171     4.9455   39 O    0 0 1   59 O    0 0 0
   7 CA   2     2.6627     5.0318   36 O    0 0 1   62 O    0 0 0
   7 CA   1     3.0423     5.7490   29 O    0-1 0

   8 CA   1     2.3328     4.4084   23 O   -1 0 0
   8 CA   2     2.3779     4.4935   48 O    0 0 0   52 O    0 0 0
   8 CA   1     2.4666     4.6613   31 O    0 0 1
   8 CA   2     2.6171     4.9455   40 O    0 1 1   60 O    0 1 0
   8 CA   2     2.6627     5.0318   35 O    0 0 1   61 O   -1 0 0
   8 CA   1     3.0423     5.7490   30 O    0 0 0

   9 CA   1     2.3328     4.4084   26 O    1 0 0
   9 CA   2     2.3779     4.4935   33 O    0 0 0   61 O    0 0 0
   9 CA   1     2.4666     4.6613   18 O    0 0 0
   9 CA   2     2.6171     4.9455   41 O    0 0 0   53 O    0 0 0
   9 CA   2     2.6627     5.0318   48 O    1 0 0   50 O    0 0 0
   9 CA   1     3.0423     5.7490   19 O    0 1 0

  10 CA   1     2.3328     4.4084   25 O    0 0 0
  10 CA   2     2.3779     4.4935   34 O    0 0 0   62 O    0 0 0
  10 CA   1     2.4666     4.6613   17 XX   0 0 0
  10 CA   2     2.6171     4.9455   42 O    0-1 0   54 O    0-1 0
  10 CA   2     2.6627     5.0318   47 O    0 0 0   49 O    0 0 0
  10 CA   1     3.0423     5.7490   20 O    0 0 0

  11 CA   1     2.3328     4.4084   28 O    0 0 0
  11 CA   2     2.3779     4.4935   35 O    0 0 0   63 O    0 0 0
  11 CA   1     2.4666     4.6613   20 O    0 0-1
  11 CA   2     2.6171     4.9455   43 O    0 0 0   55 O    0 0-1
  11 CA   2     2.6627     5.0318   46 O    0 0 0   52 O    0 0-1
  11 CA   1     3.0423     5.7490   17 XX   0 1 0

  12 CA   1     2.3328     4.4084   27 O    1 0 0
  12 CA   2     2.3779     4.4935   36 O    0 0 0   64 O    0 0 0
  12 CA   1     2.4666     4.6613   19 O    0 0-1
  12 CA   2     2.6171     4.9455   44 O    0-1 0   56 O    0-1-1
  12 CA   2     2.6627     5.0318   45 O    1 0 0   51 O    0 0-1
  12 CA   1     3.0423     5.7490   18 O    0 0 0

  13 CA   1     2.3328     4.4084   32 O    0 0 0
  13 CA   2     2.3779     4.4935   40 O    0 0 0   60 O    0 0-1
  13 CA   1     2.4666     4.6613   21 O    0 0 0
  13 CA   2     2.6171     4.9455   45 O    0 0 0   49 O    0 0 0
  13 CA   2     2.6627     5.0318   43 O    0 0 0   53 O    0 0 0
  13 CA   1     3.0423     5.7490   24 O    0 0-1

  14 CA   1     2.3328     4.4084   31 O    1 0 0
  14 CA   2     2.3779     4.4935   39 O    0 0 0   59 O    0 0-1
  14 CA   1     2.4666     4.6613   22 O    0 1 0
  14 CA   2     2.6171     4.9455   46 O    0 0 0   50 O    0 0 0
  14 CA   2     2.6627     5.0318   44 O    0 0 0   54 O    1 0 0
  14 CA   1     3.0423     5.7490   23 O    0 0-1

  15 CA   1     2.3328     4.4084   30 O    1 0 0
  15 CA   2     2.3779     4.4935   38 O    0 0 0   58 O    0 0 0
  15 CA   1     2.4666     4.6613   23 O    0 0 0
  15 CA   2     2.6171     4.9455   47 O    0 0 0   51 O    0 0 0
  15 CA   2     2.6627     5.0318   41 O    0 0 0   55 O    1 0 0
  15 CA   1     3.0423     5.7490   22 O    0 0 0

  16 CA   1     2.3328     4.4084   29 O    0 0 0
  16 CA   2     2.3779     4.4935   37 O    0 0 0   57 O    0 0 0
  16 CA   1     2.4666     4.6613   24 O    0 1 0
  16 CA   2     2.6171     4.9455   48 O    0 0 0   52 O    0 0 0
  16 CA   2     2.6627     5.0318   42 O    0 0 0   56 O    0 0 0
  16 CA   1     3.0423     5.7490   21 O    0 0 0

  17 XX   2     1.9542     3.6929   69 TI   0-1 0   75 TI   0-1 0
  17 XX   1     2.3328     4.4084    4 CA   0 0 0
  17 XX   1     2.4666     4.6613   10 CA   0 0 0
  17 XX   2     2.7468     5.1906   47 O    0 0 0   49 O    0 0 0
  17 XX   2     2.7486     5.1940   42 O    0-1 0   54 O    0-1 0
  17 XX   2     2.7702     5.2348   40 O    0 0 0   58 O    0 0 0

  18 O    2     1.9542     3.6929   70 TI   0 0 0   76 TI   0 0 0
  18 O    1     2.3328     4.4084    3 CA   1 0 0
  18 O    1     2.4666     4.6613    9 CA   0 0 0
  18 O    2     2.7468     5.1906   48 O    1 0 0   50 O    0 0 0
  18 O    2     2.7486     5.1940   41 O    0 0 0   53 O    0 0 0
  18 O    2     2.7702     5.2348   39 O    0 0 0   57 O    1 0 0

  19 O    2     1.9542     3.6929   71 TI   0-1 0   73 TI   0-1 0
  19 O    1     2.3328     4.4084    2 CA   1 0 0
  19 O    1     2.4666     4.6613   12 CA   0 0 1
  19 O    2     2.7468     5.1906   45 O    1 0 1   51 O    0 0 0
  19 O    2     2.7486     5.1940   44 O    0-1 1   56 O    0-1 0
  19 O    2     2.7702     5.2348   38 O    0 0 0   60 O    1 0 0

  20 O    2     1.9542     3.6929   72 TI   0 0 0   74 TI   0 0 0
  20 O    1     2.3328     4.4084    1 CA   0 0 0
  20 O    1     2.4666     4.6613   11 CA   0 0 1
  20 O    2     2.7468     5.1906   46 O    0 0 1   52 O    0 0 0
  20 O    2     2.7486     5.1940   43 O    0 0 1   55 O    0 0 0
  20 O    2     2.7702     5.2348   37 O    0 0 0   59 O    0 0 0

  21 O    2     1.9542     3.6929   65 TI   0 0 0   77 TI   0 0 0
  21 O    1     2.3328     4.4084    6 CA   0 0 0
  21 O    1     2.4666     4.6613   13 CA   0 0 0
  21 O    2     2.7468     5.1906   43 O    0 0 0   53 O    0 0 0
  21 O    2     2.7486     5.1940   45 O    0 0 0   49 O    0 0 0
  21 O    2     2.7702     5.2348   33 O    0 0 0   63 O    0 0 0

  22 O    2     1.9542     3.6929   66 TI   0-1 0   78 TI   0-1 0
  22 O    1     2.3328     4.4084    5 CA   1 0 0
  22 O    1     2.4666     4.6613   14 CA   0-1 0
  22 O    2     2.7468     5.1906   44 O    0-1 0   54 O    1-1 0
  22 O    2     2.7486     5.1940   46 O    0-1 0   50 O    0-1 0
  22 O    2     2.7702     5.2348   34 O    1 0 0   64 O    0 0 0

  23 O    2     1.9542     3.6929   67 TI   0 0 0   79 TI   0 0 0
  23 O    1     2.3328     4.4084    8 CA   1 0 0
  23 O    1     2.4666     4.6613   15 CA   0 0 0
  23 O    2     2.7468     5.1906   41 O    0 0 0   55 O    1 0 0
  23 O    2     2.7486     5.1940   47 O    0 0 0   51 O    0 0 0
  23 O    2     2.7702     5.2348   35 O    1 0 1   61 O    0 0 0

  24 O    2     1.9542     3.6929   68 TI   0-1 0   80 TI   0-1 0
  24 O    1     2.3328     4.4084    7 CA   0 0 0
  24 O    1     2.4666     4.6613   16 CA   0-1 0
  24 O    2     2.7468     5.1906   42 O    0-1 0   56 O    0-1 0
  24 O    2     2.7486     5.1940   48 O    0-1 0   52 O    0-1 0
  24 O    2     2.7702     5.2348   36 O    0 0 1   62 O    0 0 0

  25 O    2     1.9542     3.6929   65 TI   0 0 0   79 TI   0 0 0
  25 O    1     2.3328     4.4084   10 CA   0 0 0
  25 O    1     2.4666     4.6613    1 CA   0 0 0
  25 O    2     2.7468     5.1906   37 O    0 0 0   59 O    0 0 0
  25 O    2     2.7486     5.1940   33 O    0 0 0   61 O    0 0 0
  25 O    2     2.7702     5.2348   47 O    0 0 0   49 O    0 0 0

  26 O    2     1.9542     3.6929   66 TI  -1 0 0   80 TI   0 0 0
  26 O    1     2.3328     4.4084    9 CA  -1 0 0
  26 O    1     2.4666     4.6613    2 CA   0 1 0
  26 O    2     2.7468     5.1906   38 O   -1 1 0   60 O    0 1 0
  26 O    2     2.7486     5.1940   34 O    0 1 0   62 O    0 1 0
  26 O    2     2.7702     5.2348   48 O    0 0 0   50 O   -1 0 0

  27 O    2     1.9542     3.6929   67 TI  -1 0-1   77 TI   0 0 0
  27 O    1     2.3328     4.4084   12 CA  -1 0 0
  27 O    1     2.4666     4.6613    3 CA   0 0 0
  27 O    2     2.7468     5.1906   39 O   -1 0 0   57 O    0 0 0
  27 O    2     2.7486     5.1940   35 O    0 0 0   63 O    0 0 0
  27 O    2     2.7702     5.2348   45 O    0 0 0   51 O   -1 0-1

  28 O    2     1.9542     3.6929   68 TI   0 0-1   78 TI   0 0 0
  28 O    1     2.3328     4.4084   11 CA   0 0 0
  28 O    1     2.4666     4.6613    4 CA   0 1 0
  28 O    2     2.7468     5.1906   40 O    0 1 0   58 O    0 1 0
  28 O    2     2.7486     5.1940   36 O    0 1 0   64 O    0 1 0
  28 O    2     2.7702     5.2348   46 O    0 0 0   52 O    0 0-1

  29 O    2     1.9542     3.6929   71 TI   0 0 0   75 TI   0 0 0
  29 O    1     2.3328     4.4084   16 CA   0 0 0
  29 O    1     2.4666     4.6613    6 CA   0 0 0
  29 O    2     2.7468     5.1906   33 O    0 0 0   63 O    0 0 0
  29 O    2     2.7486     5.1940   38 O    0 1 0   58 O    0 1 0
  29 O    2     2.7702     5.2348   42 O    0 0 0   56 O    0 0 0

  30 O    2     1.9542     3.6929   72 TI   0 0 0   76 TI  -1 0 0
  30 O    1     2.3328     4.4084   15 CA  -1 0 0
  30 O    1     2.4666     4.6613    5 CA   0 0 0
  30 O    2     2.7468     5.1906   34 O    0 0 0   64 O   -1 0 0
  30 O    2     2.7486     5.1940   37 O    0 0 0   57 O    0 0 0
  30 O    2     2.7702     5.2348   41 O   -1 0 0   55 O    0 0 0

  31 O    2     1.9542     3.6929   69 TI   0 0 0   73 TI  -1 0-1
  31 O    1     2.3328     4.4084   14 CA  -1 0 0
  31 O    1     2.4666     4.6613    8 CA   0 0-1
  31 O    2     2.7468     5.1906   35 O    0 0 0   61 O   -1 0-1
  31 O    2     2.7486     5.1940   40 O    0 1 0   60 O    0 1-1
  31 O    2     2.7702     5.2348   44 O   -1 0 0   54 O    0 0 0

  32 O    2     1.9542     3.6929   70 TI   0 0 0   74 TI   0 0-1
  32 O    1     2.3328     4.4084   13 CA   0 0 0
  32 O    1     2.4666     4.6613    7 CA   0 0-1
  32 O    2     2.7468     5.1906   36 O    0 0 0   62 O    0 0-1
  32 O    2     2.7486     5.1940   39 O    0 0 0   59 O    0 0-1
  32 O    2     2.7702     5.2348   43 O    0 0 0   53 O    0 0 0

  33 O    1     1.9481     3.6814   65 TI   0 0 0
  33 O    1     1.9644     3.7122   71 TI   0 0 0
  33 O    1     2.3779     4.4935    9 CA   0 0 0
  33 O    1     2.6171     4.9455    1 CA   0 0 0
  33 O    1     2.6627     5.0318    6 CA   0 0 0
  33 O    1     2.7468     5.1906   29 O    0 0 0

  34 O    1     1.9481     3.6814   66 TI  -1-1 0
  34 O    1     1.9644     3.7122   72 TI   0 0 0
  34 O    1     2.3779     4.4935   10 CA   0 0 0
  34 O    1     2.6171     4.9455    2 CA   0 0 0
  34 O    1     2.6627     5.0318    5 CA   0 0 0
  34 O    1     2.7468     5.1906   30 O    0 0 0

  35 O    1     1.9481     3.6814   67 TI  -1 0-1
  35 O    1     1.9644     3.7122   69 TI   0 0 0
  35 O    1     2.3779     4.4935   11 CA   0 0 0
  35 O    1     2.6171     4.9455    3 CA   0 0 0
  35 O    1     2.6627     5.0318    8 CA   0 0-1
  35 O    1     2.7468     5.1906   31 O    0 0 0

  36 O    1     1.9481     3.6814   68 TI   0-1-1
  36 O    1     1.9644     3.7122   70 TI   0 0 0
  36 O    1     2.3779     4.4935   12 CA   0 0 0
  36 O    1     2.6171     4.9455    4 CA   0 0 0
  36 O    1     2.6627     5.0318    7 CA   0 0-1
  36 O    1     2.7468     5.1906   32 O    0 0 0

  37 O    1     1.9481     3.6814   72 TI   0 0 0
  37 O    1     1.9644     3.7122   65 TI   0 0 0
  37 O    1     2.3779     4.4935   16 CA   0 0 0
  37 O    1     2.6171     4.9455    5 CA   0 0 0
  37 O    1     2.6627     5.0318    1 CA   0 0 0
  37 O    1     2.7468     5.1906   25 O    0 0 0

  38 O    1     1.9481     3.6814   71 TI   0-1 0
  38 O    1     1.9644     3.7122   66 TI   0-1 0
  38 O    1     2.3779     4.4935   15 CA   0 0 0
  38 O    1     2.6171     4.9455    6 CA   0-1 0
  38 O    1     2.6627     5.0318    2 CA   1 0 0
  38 O    1     2.7468     5.1906   26 O    1-1 0

  39 O    1     1.9481     3.6814   70 TI   0 0 0
  39 O    1     1.9644     3.7122   67 TI   0 0-1
  39 O    1     2.3779     4.4935   14 CA   0 0 0
  39 O    1     2.6171     4.9455    7 CA   0 0-1
  39 O    1     2.6627     5.0318    3 CA   1 0 0
  39 O    1     2.7468     5.1906   27 O    1 0 0

  40 O    1     1.9481     3.6814   69 TI   0-1 0
  40 O    1     1.9644     3.7122   68 TI   0-1-1
  40 O    1     2.3779     4.4935   13 CA   0 0 0
  40 O    1     2.6171     4.9455    8 CA   0-1-1
  40 O    1     2.6627     5.0318    4 CA   0 0 0
  40 O    1     2.7468     5.1906   28 O    0-1 0

  41 O    1     1.9481     3.6814   76 TI   0 0 0
  41 O    1     1.9644     3.7122   79 TI   0 0 0
  41 O    1     2.3779     4.4935    4 CA   0 0 0
  41 O    1     2.6171     4.9455    9 CA   0 0 0
  41 O    1     2.6627     5.0318   15 CA   0 0 0
  41 O    1     2.7468     5.1906   23 O    0 0 0

  42 O    1     1.9481     3.6814   75 TI   0 0 0
  42 O    1     1.9644     3.7122   80 TI   0 0 0
  42 O    1     2.3779     4.4935    3 CA   0 0 0
  42 O    1     2.6171     4.9455   10 CA   0 1 0
  42 O    1     2.6627     5.0318   16 CA   0 0 0
  42 O    1     2.7468     5.1906   24 O    0 1 0

  43 O    1     1.9481     3.6814   74 TI   0 0-1
  43 O    1     1.9644     3.7122   77 TI   0 0 0
  43 O    1     2.3779     4.4935    2 CA   0 0-1
  43 O    1     2.6171     4.9455   11 CA   0 0 0
  43 O    1     2.6627     5.0318   13 CA   0 0 0
  43 O    1     2.7468     5.1906   21 O    0 0 0

  44 O    1     1.9481     3.6814   73 TI   0 0-1
  44 O    1     1.9644     3.7122   78 TI   0 0 0
  44 O    1     2.3779     4.4935    1 CA   0 0-1
  44 O    1     2.6171     4.9455   12 CA   0 1 0
  44 O    1     2.6627     5.0318   14 CA   0 0 0
  44 O    1     2.7468     5.1906   22 O    0 1 0

  45 O    1     1.9481     3.6814   77 TI   0 0 0
  45 O    1     1.9644     3.7122   73 TI  -1-1-1
  45 O    1     2.3779     4.4935    5 CA   0 0 0
  45 O    1     2.6171     4.9455   13 CA   0 0 0
  45 O    1     2.6627     5.0318   12 CA  -1 0 0
  45 O    1     2.7468     5.1906   19 O   -1 0-1

  46 O    1     1.9481     3.6814   78 TI   0 0 0
  46 O    1     1.9644     3.7122   74 TI   0 0-1
  46 O    1     2.3779     4.4935    6 CA   0 0 0
  46 O    1     2.6171     4.9455   14 CA   0 0 0
  46 O    1     2.6627     5.0318   11 CA   0 0 0
  46 O    1     2.7468     5.1906   20 O    0 0-1

  47 O    1     1.9481     3.6814   79 TI   0 0 0
  47 O    1     1.9644     3.7122   75 TI   0-1 0
  47 O    1     2.3779     4.4935    7 CA   0 0 0
  47 O    1     2.6171     4.9455   15 CA   0 0 0
  47 O    1     2.6627     5.0318   10 CA   0 0 0
  47 O    1     2.7468     5.1906   17 XX   0 0 0

  48 O    1     1.9481     3.6814   80 TI   0 0 0
  48 O    1     1.9644     3.7122   76 TI  -1 0 0
  48 O    1     2.3779     4.4935    8 CA   0 0 0
  48 O    1     2.6171     4.9455   16 CA   0 0 0
  48 O    1     2.6627     5.0318    9 CA  -1 0 0
  48 O    1     2.7468     5.1906   18 O   -1 0 0

  49 O    1     1.9481     3.6814   65 TI   0 0 0
  49 O    1     1.9644     3.7122   69 TI   0-1 0
  49 O    1     2.3779     4.4935    5 CA   0 0 0
  49 O    1     2.6171     4.9455   13 CA   0 0 0
  49 O    1     2.6627     5.0318   10 CA   0 0 0
  49 O    1     2.7468     5.1906   17 XX   0 0 0

  50 O    1     1.9481     3.6814   66 TI   0 0 0
  50 O    1     1.9644     3.7122   70 TI   0 0 0
  50 O    1     2.3779     4.4935    6 CA   0 0 0
  50 O    1     2.6171     4.9455   14 CA   0 0 0
  50 O    1     2.6627     5.0318    9 CA   0 0 0
  50 O    1     2.7468     5.1906   18 O    0 0 0

  51 O    1     1.9481     3.6814   67 TI   0 0 0
  51 O    1     1.9644     3.7122   71 TI   0-1 0
  51 O    1     2.3779     4.4935    7 CA   0 0 0
  51 O    1     2.6171     4.9455   15 CA   0 0 0
  51 O    1     2.6627     5.0318   12 CA   0 0 1
  51 O    1     2.7468     5.1906   19 O    0 0 0

  52 O    1     1.9481     3.6814   68 TI   0 0 0
  52 O    1     1.9644     3.7122   72 TI   0 0 0
  52 O    1     2.3779     4.4935    8 CA   0 0 0
  52 O    1     2.6171     4.9455   16 CA   0 0 0
  52 O    1     2.6627     5.0318   11 CA   0 0 1
  52 O    1     2.7468     5.1906   20 O    0 0 0

  53 O    1     1.9481     3.6814   70 TI   0 0 0
  53 O    1     1.9644     3.7122   65 TI   0 0 0
  53 O    1     2.3779     4.4935    4 CA   0 0 0
  53 O    1     2.6171     4.9455    9 CA   0 0 0
  53 O    1     2.6627     5.0318   13 CA   0 0 0
  53 O    1     2.7468     5.1906   21 O    0 0 0

  54 O    1     1.9481     3.6814   69 TI   0 0 0
  54 O    1     1.9644     3.7122   66 TI  -1 0 0
  54 O    1     2.3779     4.4935    3 CA   0 0 0
  54 O    1     2.6171     4.9455   10 CA   0 1 0
  54 O    1     2.6627     5.0318   14 CA  -1 0 0
  54 O    1     2.7468     5.1906   22 O   -1 1 0

  55 O    1     1.9481     3.6814   72 TI   0 0 0
  55 O    1     1.9644     3.7122   67 TI  -1 0 0
  55 O    1     2.3779     4.4935    2 CA   0 0 0
  55 O    1     2.6171     4.9455   11 CA   0 0 1
  55 O    1     2.6627     5.0318   15 CA  -1 0 0
  55 O    1     2.7468     5.1906   23 O   -1 0 0

  56 O    1     1.9481     3.6814   71 TI   0 0 0
  56 O    1     1.9644     3.7122   68 TI   0 0 0
  56 O    1     2.3779     4.4935    1 CA   0 0 0
  56 O    1     2.6171     4.9455   12 CA   0 1 1
  56 O    1     2.6627     5.0318   16 CA   0 0 0
  56 O    1     2.7468     5.1906   24 O    0 1 0

  57 O    1     1.9481     3.6814   76 TI  -1 0 0
  57 O    1     1.9644     3.7122   77 TI   0 0 0
  57 O    1     2.3779     4.4935   16 CA   0 0 0
  57 O    1     2.6171     4.9455    5 CA   0 0 0
  57 O    1     2.6627     5.0318    3 CA   0 0 0
  57 O    1     2.7468     5.1906   27 O    0 0 0

  58 O    1     1.9481     3.6814   75 TI   0-1 0
  58 O    1     1.9644     3.7122   78 TI   0-1 0
  58 O    1     2.3779     4.4935   15 CA   0 0 0
  58 O    1     2.6171     4.9455    6 CA   0-1 0
  58 O    1     2.6627     5.0318    4 CA   0 0 0
  58 O    1     2.7468     5.1906   28 O    0-1 0

  59 O    1     1.9481     3.6814   74 TI   0 0 0
  59 O    1     1.9644     3.7122   79 TI   0 0 0
  59 O    1     2.3779     4.4935   14 CA   0 0 1
  59 O    1     2.6171     4.9455    7 CA   0 0 0
  59 O    1     2.6627     5.0318    1 CA   0 0 0
  59 O    1     2.7468     5.1906   25 O    0 0 0

  60 O    1     1.9481     3.6814   73 TI  -1-1 0
  60 O    1     1.9644     3.7122   80 TI   0-1 0
  60 O    1     2.3779     4.4935   13 CA   0 0 1
  60 O    1     2.6171     4.9455    8 CA   0-1 0
  60 O    1     2.6627     5.0318    2 CA   0 0 0
  60 O    1     2.7468     5.1906   26 O    0-1 0

  61 O    1     1.9481     3.6814   79 TI   0 0 0
  61 O    1     1.9644     3.7122   73 TI   0 0 0
  61 O    1     2.3779     4.4935    9 CA   0 0 0
  61 O    1     2.6171     4.9455    1 CA   0 0 0
  61 O    1     2.6627     5.0318    8 CA   1 0 0
  61 O    1     2.7468     5.1906   31 O    1 0 1

  62 O    1     1.9481     3.6814   80 TI   0-1 0
  62 O    1     1.9644     3.7122   74 TI   0 0 0
  62 O    1     2.3779     4.4935   10 CA   0 0 0
  62 O    1     2.6171     4.9455    2 CA   0 0 0
  62 O    1     2.6627     5.0318    7 CA   0 0 0
  62 O    1     2.7468     5.1906   32 O    0 0 1

  63 O    1     1.9481     3.6814   77 TI   0 0 0
  63 O    1     1.9644     3.7122   75 TI   0 0 0
  63 O    1     2.3779     4.4935   11 CA   0 0 0
  63 O    1     2.6171     4.9455    3 CA   0 0 0
  63 O    1     2.6627     5.0318    6 CA   0 0 0
  63 O    1     2.7468     5.1906   29 O    0 0 0

  64 O    1     1.9481     3.6814   78 TI   0-1 0
  64 O    1     1.9644     3.7122   76 TI   0 0 0
  64 O    1     2.3779     4.4935   12 CA   0 0 0
  64 O    1     2.6171     4.9455    4 CA   0 0 0
  64 O    1     2.6627     5.0318    5 CA   1 0 0
  64 O    1     2.7468     5.1906   30 O    1 0 0

  65 TI   2     1.9481     3.6814   33 O    0 0 0   49 O    0 0 0
  65 TI   2     1.9542     3.6929   21 O    0 0 0   25 O    0 0 0
  65 TI   2     1.9644     3.7122   37 O    0 0 0   53 O    0 0 0
  65 TI   2     3.1655     5.9820    1 CA   0 0 0   13 CA   0 0 0
  65 TI   2     3.2786     6.1957    5 CA   0 0 0    9 CA   0 0 0
  65 TI   2     3.3285     6.2900    6 CA   0 0 0   10 CA   0 0 0

  66 TI   2     1.9481     3.6814   34 O    1 1 0   50 O    0 0 0
  66 TI   2     1.9542     3.6929   22 O    0 1 0   26 O    1 0 0
  66 TI   2     1.9644     3.7122   38 O    0 1 0   54 O    1 0 0
  66 TI   2     3.1655     5.9820    2 CA   1 1 0   14 CA   0 0 0
  66 TI   2     3.2786     6.1957    6 CA   0 0 0   10 CA   1 1 0
  66 TI   2     3.3285     6.2900    5 CA   1 1 0    9 CA   0 0 0

  67 TI   2     1.9481     3.6814   35 O    1 0 1   51 O    0 0 0
  67 TI   2     1.9542     3.6929   23 O    0 0 0   27 O    1 0 1
  67 TI   2     1.9644     3.7122   39 O    0 0 1   55 O    1 0 0
  67 TI   2     3.1655     5.9820    3 CA   1 0 1   15 CA   0 0 0
  67 TI   2     3.2786     6.1957    7 CA   0 0 0   11 CA   1 0 1
  67 TI   2     3.3285     6.2900    8 CA   1 0 0   12 CA   0 0 1

  68 TI   2     1.9481     3.6814   36 O    0 1 1   52 O    0 0 0
  68 TI   2     1.9542     3.6929   24 O    0 1 0   28 O    0 0 1
  68 TI   2     1.9644     3.7122   40 O    0 1 1   56 O    0 0 0
  68 TI   2     3.1655     5.9820    4 CA   0 1 1   16 CA   0 0 0
  68 TI   2     3.2786     6.1957    8 CA   0 0 0   12 CA   0 1 1
  68 TI   2     3.3285     6.2900    7 CA   0 1 0   11 CA   0 0 1

  69 TI   2     1.9481     3.6814   40 O    0 1 0   54 O    0 0 0
  69 TI   1     1.9542     3.6929   17 XX   0 1 0
  69 TI   1     1.9542     3.6929   31 O    0 0 0
  69 TI   2     1.9644     3.7122   35 O    0 0 0   49 O    0 1 0
  69 TI   2     3.1655     5.9820    8 CA   0 0-1   10 CA   0 1 0
  69 TI   2     3.2786     6.1957    3 CA   0 0 0   13 CA   0 1 0

  70 TI   2     1.9481     3.6814   39 O    0 0 0   53 O    0 0 0
  70 TI   2     1.9542     3.6929   18 O    0 0 0   32 O    0 0 0
  70 TI   2     1.9644     3.7122   36 O    0 0 0   50 O    0 0 0
  70 TI   2     3.1655     5.9820    7 CA   0 0-1    9 CA   0 0 0
  70 TI   2     3.2786     6.1957    4 CA   0 0 0   14 CA   0 0 0
  70 TI   2     3.3285     6.2900    3 CA   1 0 0   13 CA   0 0 0

  71 TI   2     1.9481     3.6814   38 O    0 1 0   56 O    0 0 0
  71 TI   2     1.9542     3.6929   19 O    0 1 0   29 O    0 0 0
  71 TI   2     1.9644     3.7122   33 O    0 0 0   51 O    0 1 0
  71 TI   2     3.1655     5.9820    6 CA   0 0 0   12 CA   0 1 1
  71 TI   2     3.2786     6.1957    1 CA   0 0 0   15 CA   0 1 0
  71 TI   2     3.3285     6.2900    2 CA   1 1 0   16 CA   0 0 0

  72 TI   2     1.9481     3.6814   37 O    0 0 0   55 O    0 0 0
  72 TI   2     1.9542     3.6929   20 O    0 0 0   30 O    0 0 0
  72 TI   2     1.9644     3.7122   34 O    0 0 0   52 O    0 0 0
  72 TI   2     3.1655     5.9820    5 CA   0 0 0   11 CA   0 0 1
  72 TI   2     3.2786     6.1957    2 CA   0 0 0   16 CA   0 0 0
  72 TI   2     3.3285     6.2900    1 CA   0 0 0   15 CA  -1 0 0

  73 TI   2     1.9481     3.6814   44 O    0 0 1   60 O    1 1 0
  73 TI   2     1.9542     3.6929   19 O    0 1 0   31 O    1 0 1
  73 TI   2     1.9644     3.7122   45 O    1 1 1   61 O    0 0 0
  73 TI   2     3.1655     5.9820    8 CA   1 0 0   12 CA   0 1 1
  73 TI   2     3.2786     6.1957    1 CA   0 0 0   13 CA   1 1 1
  73 TI   2     3.3285     6.2900    2 CA   1 1 0   14 CA   0 0 1

  74 TI   2     1.9481     3.6814   43 O    0 0 1   59 O    0 0 0
  74 TI   2     1.9542     3.6929   20 O    0 0 0   32 O    0 0 1
  74 TI   2     1.9644     3.7122   46 O    0 0 1   62 O    0 0 0
  74 TI   2     3.1655     5.9820    7 CA   0 0 0   11 CA   0 0 1
  74 TI   2     3.2786     6.1957    2 CA   0 0 0   14 CA   0 0 1
  74 TI   2     3.3285     6.2900    1 CA   0 0 0   13 CA   0 0 1

  75 TI   2     1.9481     3.6814   42 O    0 0 0   58 O    0 1 0
  75 TI   1     1.9542     3.6929   17 XX   0 1 0
  75 TI   1     1.9542     3.6929   29 O    0 0 0
  75 TI   2     1.9644     3.7122   47 O    0 1 0   63 O    0 0 0
  75 TI   2     3.1655     5.9820    6 CA   0 0 0   10 CA   0 1 0
  75 TI   2     3.2786     6.1957    3 CA   0 0 0   15 CA   0 1 0

  76 TI   2     1.9481     3.6814   41 O    0 0 0   57 O    1 0 0
  76 TI   2     1.9542     3.6929   18 O    0 0 0   30 O    1 0 0
  76 TI   2     1.9644     3.7122   48 O    1 0 0   64 O    0 0 0
  76 TI   2     3.1655     5.9820    5 CA   1 0 0    9 CA   0 0 0
  76 TI   2     3.2786     6.1957    4 CA   0 0 0   16 CA   1 0 0
  76 TI   2     3.3285     6.2900    3 CA   1 0 0   15 CA   0 0 0

  77 TI   2     1.9481     3.6814   45 O    0 0 0   63 O    0 0 0
  77 TI   2     1.9542     3.6929   21 O    0 0 0   27 O    0 0 0
  77 TI   2     1.9644     3.7122   43 O    0 0 0   57 O    0 0 0
  77 TI   2     3.1655     5.9820    3 CA   0 0 0   13 CA   0 0 0
  77 TI   2     3.2786     6.1957    5 CA   0 0 0   11 CA   0 0 0
  77 TI   2     3.3285     6.2900    6 CA   0 0 0   12 CA  -1 0 0

  78 TI   2     1.9481     3.6814   46 O    0 0 0   64 O    0 1 0
  78 TI   2     1.9542     3.6929   22 O    0 1 0   28 O    0 0 0
  78 TI   2     1.9644     3.7122   44 O    0 0 0   58 O    0 1 0
  78 TI   2     3.1655     5.9820    4 CA   0 1 0   14 CA   0 0 0
  78 TI   2     3.2786     6.1957    6 CA   0 0 0   12 CA   0 1 0
  78 TI   2     3.3285     6.2900    5 CA   1 1 0   11 CA   0 0 0

  79 TI   2     1.9481     3.6814   47 O    0 0 0   61 O    0 0 0
  79 TI   2     1.9542     3.6929   23 O    0 0 0   25 O    0 0 0
  79 TI   2     1.9644     3.7122   41 O    0 0 0   59 O    0 0 0
  79 TI   2     3.1655     5.9820    1 CA   0 0 0   15 CA   0 0 0
  79 TI   2     3.2786     6.1957    7 CA   0 0 0    9 CA   0 0 0
  79 TI   2     3.3285     6.2900    8 CA   1 0 0   10 CA   0 0 0

  80 TI   2     1.9481     3.6814   48 O    0 0 0   62 O    0 1 0
  80 TI   2     1.9542     3.6929   24 O    0 1 0   26 O    0 0 0
  80 TI   2     1.9644     3.7122   42 O    0 0 0   60 O    0 1 0
  80 TI   2     3.1655     5.9820    2 CA   0 1 0   16 CA   0 0 0
  80 TI   2     3.2786     6.1957    8 CA   0 0 0   10 CA   0 1 0
  80 TI   2     3.3285     6.2900    7 CA   0 1 0    9 CA  -1 0 0


 SYMMETRY ALLOWED ELASTIC DISTORTION 1
  0.5773503  0.0000000  0.0000000
  0.0000000  0.5773503  0.0000000
  0.0000000  0.0000000  0.5773503

 SYMMETRY ALLOWED ELASTIC DISTORTION 2
  0.8164966  0.0000000  0.0000000
  0.0000000 -0.4082483  0.0000000
  0.0000000  0.0000000 -0.4082483

 SYMMETRY ALLOWED ELASTIC DISTORTION 3
  0.0000000  0.7071068  0.0000000
  0.7071068  0.0000000  0.0000000
  0.0000000  0.0000000  0.0000000

 SYMMETRY ALLOWED ELASTIC DISTORTION 4
  0.0000000  0.0000000  0.0000000
  0.0000000  0.7071068  0.0000000
  0.0000000  0.0000000 -0.7071068

 SYMMETRY ALLOWED ELASTIC DISTORTION 5
  0.0000000  0.0000000  0.7071068
  0.0000000  0.0000000  0.0000000
  0.7071068  0.0000000  0.0000000

 SYMMETRY ALLOWED ELASTIC DISTORTION 6
  0.0000000  0.0000000  0.0000000
  0.0000000  0.0000000  0.7071068
  0.0000000  0.7071068  0.0000000

 SYMMETRY ALLOWED INTERNAL DEGREE(S) OF FREEDOM: 237
 TTTTTTTTTTTTTTTTTTTTTTTTTTTTTT SYMM        TELAPSE       20.81 TCPU        0.38
 TTTTTTTTTTTTTTTTTTTTTTTTTTTTTT INT_SCREEN  TELAPSE       20.85 TCPU        0.42

 INITIAL TRUST RADIUS    0.4000000000E+01

 PREDICTED ENERGY CHANGE     0.253E-04

 OPTOPTOPTOPTOPTOPTOPTOPTOPTOPTOPTOPTOPTOPTOPTOPTOPTOPTOPTOPTOPTOPTOPTOPTOPTOPT

            RESTARTING FROM A PREVIOUS GEOMETRY OPTIMIZATION RUN
 OPTOPTOPTOPTOPTOPTOPTOPTOPTOPTOPTOPTOPTOPTOPTOPTOPTOPTOPTOPTOPTOPTOPTOPTOPTOPT
 *******************************************************************************
 COORDINATE AND CELL OPTIMIZATION - POINT   40
 INITIAL HESSIAN FROM PREVIOUS OPTIMIZATION

              1             2             3             4             5
   1    0.388934E+01
   2    0.212630E+00  0.321207E+01
   3   -0.395993E+00  0.150239E+00  0.438178E+01
   4    0.226091E-01 -0.483902E-01  0.186304E-01  0.396093E+01
   5   -0.395554E-01 -0.275709E-02  0.377597E-01  0.345600E+00  0.342189E+01
   6    0.269466E-01  0.302329E-01  0.557227E-01 -0.274777E+00  0.244593E+00
   7    0.121269E-01 -0.591125E-01  0.296137E-02  0.182512E-01 -0.963085E-02
   8    0.159032E-01  0.643236E-01 -0.157173E-01  0.396678E-01  0.102026E+00
   9    0.560173E-01  0.813110E-01  0.413142E-01  0.646488E-01  0.424785E-01
  10    0.209935E-01 -0.344156E-01  0.565461E-01  0.626691E-01 -0.175942E-01
  11    0.659728E-02  0.513033E-01  0.459003E-02  0.104352E-01  0.564426E-01
  12    0.137790E-01 -0.115482E-01  0.222640E-01 -0.350166E-01 -0.140315E-01
  13   -0.377720E-02 -0.954822E-01  0.109329E-01 -0.112612E-01 -0.953485E-01
  14   -0.463803E-01  0.275246E-01  0.560037E-02 -0.215050E-01  0.742664E-01
  15   -0.681505E-01 -0.438106E-01  0.790363E-01 -0.141408E-01  0.470475E-01
  16    0.710263E-01 -0.929344E-03  0.105764E-01  0.515177E-01 -0.302108E-01
  17   -0.408850E-02  0.743081E-01  0.699780E-01 -0.629905E-02  0.482794E-01
  18   -0.654757E-01 -0.349314E-01  0.886897E-01 -0.990962E-01 -0.783914E-01
  19    0.925033E-01  0.439588E-01 -0.230012E-01  0.414158E-01  0.165534E-01
  20   -0.636212E-01 -0.566839E-01  0.293812E-01 -0.760759E-01  0.469374E-01
  21   -0.100582E-02  0.303139E-01  0.767325E-01  0.371352E-01  0.789743E-01
  22    0.774129E-01  0.607016E-01 -0.167819E-01  0.133822E+00  0.729850E-01
  23   -0.437195E-01  0.460442E-01  0.599968E-01 -0.341167E-01 -0.399388E-01
  24   -0.280492E-01 -0.162815E-01  0.111023E+00 -0.284260E-01 -0.180987E-01
  25   -0.671306E-01  0.197722E-01 -0.497351E-01 -0.133655E+00 -0.166420E-01
  26    0.924012E-01 -0.343438E-01 -0.718198E-01  0.410360E-01  0.435127E-01
  27    0.141437E-04  0.294057E-01 -0.118838E+00  0.807398E-01  0.142725E+00
  28   -0.888617E-01  0.113518E-01  0.229877E-01 -0.620385E-02  0.416160E-01
  29   -0.579573E-01 -0.986711E-01  0.120675E+00  0.129475E-01 -0.145777E+00
  30   -0.338618E-01 -0.142383E-02 -0.494326E-01 -0.912509E-01 -0.455172E-01
  31   -0.570140E-01  0.395815E-01 -0.444992E-01 -0.137140E+00 -0.274341E-01
  32    0.239656E-01 -0.104686E+00 -0.375592E-01  0.290495E-01  0.190097E-01
  33   -0.606520E-01 -0.465428E-01 -0.748628E-01  0.609652E-01  0.127202E+00
  34   -0.124624E+00 -0.225646E-01 -0.344449E-02 -0.531098E-01  0.502195E-01
  35    0.861743E-01  0.738687E-01  0.203372E-01  0.126446E+00 -0.386782E-02
  36    0.822740E-01  0.147818E+00 -0.114076E+00  0.522730E-02  0.353119E-01
  37    0.105893E+00  0.480498E-01 -0.671691E-01 -0.553582E-01  0.452246E-01
  38    0.714474E-01  0.140541E+00 -0.574442E-01  0.550437E-01  0.195674E-01
  39   -0.454976E-01 -0.227439E-01  0.109864E+00  0.222411E-01 -0.483026E-01
  40   -0.229170E-01  0.168215E-01  0.156501E-01  0.146512E+00  0.490292E-01
  41   -0.242149E-01 -0.106506E+00  0.182733E-02  0.207146E-01  0.582474E-01
  42    0.360569E-02 -0.837022E-01  0.440811E-02 -0.482897E-01 -0.501559E-01
  43    0.130625E+00  0.635530E-01 -0.537557E-01  0.188597E-01  0.314093E-01
  44    0.503280E-01  0.155333E+00 -0.415849E-01  0.807119E-02 -0.725514E-03
  45    0.159651E-01  0.394612E-01  0.794717E-01  0.719880E-01  0.190034E-01
  46    0.522678E-03  0.114455E-01  0.299278E-01  0.159932E+00  0.806913E-01
  47   -0.376498E-01 -0.109019E+00  0.580336E-02  0.467429E-01  0.968217E-01
  48   -0.788915E-02 -0.596909E-01 -0.422945E-01 -0.339887E-01 -0.216884E-01
  49    0.307909E-01 -0.190542E-01 -0.265410E-02  0.476872E-01  0.892208E-02
  50    0.760919E-02  0.362788E-01  0.991581E-02  0.115343E-01  0.359633E-01
  51    0.239097E-01  0.287076E-01  0.532109E-01  0.121884E-01  0.400561E-02
  52    0.727241E-01  0.199732E-01 -0.246357E-01  0.663547E-01  0.248932E-01
  53   -0.128694E-01  0.289038E-01  0.145496E-01  0.115597E-03  0.334305E-01
  54   -0.229228E-01 -0.255171E-01  0.962875E-01 -0.756407E-02 -0.170965E-01
  55    0.502045E-01  0.388902E-02 -0.502676E-03 -0.149338E+00  0.993209E-01
  56   -0.895303E-03  0.379873E-01 -0.349942E-02  0.856765E-01 -0.113244E+00
  57   -0.537756E-02 -0.454586E-02  0.519173E-01 -0.368392E-01 -0.279521E-01
  58   -0.163063E+00  0.892697E-01 -0.119361E-01  0.262328E-01 -0.243661E-01
  59    0.867929E-01 -0.118790E+00 -0.146523E-01 -0.133932E-01  0.185454E-01
  60   -0.248370E-01 -0.161106E-01 -0.229188E+00  0.886645E-02  0.310161E-01
  61    0.462073E-01 -0.959728E-02 -0.110219E-01  0.594502E-01  0.954266E-02
  62    0.208070E-01  0.568667E-01 -0.159313E-02 -0.106855E-01  0.192423E-01
  63    0.186523E-01  0.457893E-01  0.496701E-01 -0.925097E-02 -0.620063E-02
  64    0.660096E-01  0.808371E-02 -0.138561E-01  0.761972E-01  0.217146E-01
  65   -0.910753E-02  0.370484E-01  0.126706E-01 -0.612589E-02  0.412976E-01
  66   -0.159724E-01 -0.111061E-01  0.474455E-01 -0.168674E-01  0.886852E-02
  67    0.358952E-01 -0.163392E-01 -0.842501E-02  0.465881E-01  0.851576E-02
  68    0.267722E-01  0.645895E-01  0.776308E-03 -0.228193E-02  0.207605E-01
  69    0.235718E-01  0.236766E-01  0.622423E-01 -0.640343E-02 -0.165713E-01
  70    0.445072E-01  0.801683E-02 -0.559703E-02  0.493114E-01  0.714128E-02
  71    0.619732E-02  0.429053E-01  0.336510E-02  0.107900E-01  0.561855E-01
  72   -0.120302E-01 -0.496976E-02  0.815031E-01 -0.158579E-01 -0.130938E-01
  73   -0.149745E+00 -0.125977E-01 -0.498548E-01  0.713107E-01  0.137054E-01
  74   -0.958732E-02 -0.133694E+00  0.634870E-01 -0.174650E-01  0.184556E-01
  75   -0.587172E-01  0.592876E-01 -0.797937E-01 -0.398779E-01 -0.256564E-01
  76    0.722809E-01  0.714941E-02 -0.210062E-01 -0.127700E+00  0.103996E-02
  77    0.624648E-02  0.469468E-01 -0.403450E-02 -0.119990E-01 -0.132746E+00
  78   -0.250183E-01  0.389789E-02  0.801274E-01 -0.764119E-01  0.531704E-01
  79    0.590306E-01 -0.240451E-02 -0.240963E-01  0.525909E-01  0.270929E-01
  80    0.334831E-01  0.734286E-01  0.153434E-02  0.104249E-01  0.200640E-01
  81    0.184422E-01  0.274624E-01  0.870866E-01  0.451179E-02 -0.272958E-01
  82    0.387886E-01  0.647486E-02  0.931519E-03  0.583968E-01  0.676442E-02
  83    0.152572E-02  0.359425E-01  0.581959E-02  0.264196E-02  0.497387E-01
  84    0.480743E-02 -0.378732E-02  0.414463E-01  0.232506E-02  0.827357E-02
  85    0.632474E-01  0.188781E-01 -0.761729E-03  0.608957E-01  0.993735E-02
  86    0.252556E-01  0.599136E-01  0.744710E-02 -0.329659E-02  0.484436E-01
  87    0.797281E-02  0.173984E-01  0.598455E-01 -0.134216E-01 -0.113389E-01
  88    0.670175E-01  0.240697E-01 -0.178314E-01  0.683117E-01  0.193515E-01
  89    0.779507E-02  0.582542E-01 -0.942258E-02  0.262073E-01  0.631361E-01
  90   -0.118062E-01  0.101306E-02  0.661394E-01  0.741454E-02  0.273691E-01
  91    0.290178E-01 -0.731153E-02 -0.450191E-02  0.653604E-01  0.208325E-01
  92    0.224639E-01  0.744697E-01 -0.785175E-02  0.935263E-02  0.384238E-01
  93    0.236402E-01  0.315130E-01  0.560942E-01 -0.483790E-02 -0.590726E-02
  94    0.749632E-01  0.183381E-01 -0.128923E-01  0.581714E-01  0.134859E-01
  95    0.225962E-01  0.626019E-01  0.822902E-02  0.169800E-01  0.736403E-01
  96   -0.149086E-01 -0.666485E-02  0.668893E-01 -0.311714E-02  0.156428E-01
  97   -0.167327E+00  0.795605E-02 -0.420199E-01  0.681804E-01  0.184265E-01
  98    0.368472E-01 -0.142525E+00 -0.113430E+00  0.105160E-01  0.319258E-01
  99   -0.417081E-01 -0.100238E+00 -0.100015E+00 -0.313465E-01  0.931689E-02
 100    0.715499E-01  0.109623E-01 -0.210331E-01 -0.163811E+00  0.167592E-01
 101    0.129025E-01  0.642949E-01 -0.744283E-02  0.186288E-01 -0.141107E+00
 102   -0.131781E-01 -0.529242E-02  0.714096E-01 -0.222272E-01 -0.100202E+00
 103    0.629815E-01 -0.409814E-02 -0.238230E-01  0.746793E-01  0.237716E-01
 104    0.211742E-01  0.597002E-01 -0.122056E-02  0.635028E-02  0.186588E-01
 105   -0.104651E-01 -0.924875E-03  0.726052E-01 -0.234310E-01 -0.987140E-02
 106    0.671463E-01  0.117478E-01 -0.136583E-01  0.590013E-01  0.112556E-01
 107    0.146440E-01  0.573136E-01  0.941738E-02 -0.639790E-02  0.457416E-01
 108   -0.242603E-01 -0.352855E-01  0.798462E-01 -0.130692E-01 -0.116066E-01
 109   -0.257293E+00 -0.219520E-01  0.185810E+00  0.836901E-01  0.234435E-01
 110   -0.117571E+00 -0.184511E+00  0.102831E+00  0.215234E-02  0.510955E-01
[...]

  62 O    1     1.9536     3.6918   80 TI   0-1 0
  62 O    1     1.9635     3.7105   74 TI   0 0 0
  62 O    1     2.3607     4.4610   10 CA   0 0 0
  62 O    1     2.5966     4.9069    2 CA   0 0 0
  62 O    1     2.6534     5.0142    7 CA   0 0 0
  62 O    1     2.7343     5.1672   26 O    0-1 0

  63 O    1     1.8899     3.5715   77 TI   0 0 0
  63 O    1     2.0332     3.8423   75 TI   0 0 0
  63 O    1     2.3683     4.4755   11 CA   0 0 0
  63 O    1     2.5464     4.8120    3 CA   0 0 0
  63 O    1     2.6700     5.0455   17 XX   0 1 0
  63 O    1     2.6905     5.0843    6 CA   0 0 0

  64 O    1     1.9520     3.6888   78 TI   0-1 0
  64 O    1     1.9591     3.7022   76 TI   0 0 0
  64 O    1     2.3737     4.4856   12 CA   0 0 0
  64 O    1     2.5937     4.9014    4 CA   0 0 0
  64 O    1     2.6859     5.0756    5 CA   1 0 0
  64 O    1     2.7293     5.1577   28 O    0-1 0

  65 TI   1     1.8781     3.5490   33 O    0 0 0
  65 TI   1     1.9342     3.6552   25 O    0 0 0
  65 TI   1     1.9430     3.6718   53 O    0 0 0
  65 TI   1     1.9432     3.6721   21 O    0 0 0
  65 TI   1     1.9831     3.7476   37 O    0 0 0
  65 TI   1     2.0415     3.8579   49 O    0 0 0

  66 TI   1     1.9441     3.6739   26 O    1 0 0
  66 TI   1     1.9502     3.6853   22 O    0 1 0
  66 TI   1     1.9519     3.6886   34 O    1 1 0
  66 TI   1     1.9572     3.6985   50 O    0 0 0
  66 TI   1     1.9590     3.7020   54 O    1 0 0
  66 TI   1     1.9619     3.7075   38 O    0 1 0

  67 TI   1     1.8908     3.5730   35 O    1 0 1
  67 TI   1     1.9374     3.6612   55 O    1 0 0
  67 TI   1     1.9470     3.6793   27 O    1 0 1
  67 TI   1     1.9619     3.7074   23 O    0 0 0
  67 TI   1     1.9776     3.7372   39 O    0 0 1
  67 TI   1     2.0195     3.8163   51 O    0 0 0

  68 TI   1     1.9400     3.6661   28 O    0 0 1
  68 TI   1     1.9436     3.6729   56 O    0 0 0
  68 TI   1     1.9451     3.6757   24 O    0 1 0
  68 TI   1     1.9502     3.6853   36 O    0 1 1
  68 TI   1     1.9644     3.7121   52 O    0 0 0
  68 TI   1     1.9754     3.7329   40 O    0 1 1

  69 TI   1     1.8716     3.5368   49 O    0 1 0
  69 TI   1     1.9250     3.6377   17 XX   0 1 0
  69 TI   1     1.9417     3.6694   54 O    0 0 0
  69 TI   1     1.9442     3.6739   40 O    0 1 0
  69 TI   1     1.9753     3.7328   31 O    0 0 0
  69 TI   1     2.0334     3.8425   35 O    0 0 0

  70 TI   1     1.9326     3.6520   39 O    0 0 0
  70 TI   1     1.9418     3.6695   18 O    0 0 0
  70 TI   1     1.9481     3.6814   32 O    0 0 0
  70 TI   1     1.9605     3.7048   36 O    0 0 0
  70 TI   1     1.9641     3.7116   50 O    0 0 0
  70 TI   1     1.9695     3.7218   53 O    0 0 0

  71 TI   1     1.8957     3.5823   51 O    0 1 0
  71 TI   1     1.9321     3.6511   29 O    0 0 0
  71 TI   1     1.9459     3.6773   38 O    0 1 0
  71 TI   1     1.9547     3.6939   19 O    0 1 0
  71 TI   1     1.9655     3.7142   56 O    0 0 0
  71 TI   1     2.0331     3.8420   33 O    0 0 0

  72 TI   1     1.9435     3.6727   20 O    0 0 0
  72 TI   1     1.9437     3.6730   37 O    0 0 0
  72 TI   1     1.9487     3.6826   30 O    0 0 0
  72 TI   1     1.9551     3.6945   52 O    0 0 0
  72 TI   1     1.9611     3.7059   55 O    0 0 0
  72 TI   1     1.9653     3.7139   34 O    0 0 0

  73 TI   1     1.8952     3.5815   45 O    1 1 1
  73 TI   1     1.9289     3.6452   31 O    1 0 1
  73 TI   1     1.9538     3.6921   60 O    1 1 0
  73 TI   1     1.9580     3.7000   19 O    0 1 0
  73 TI   1     1.9584     3.7008   44 O    0 0 1
  73 TI   1     2.0335     3.8428   61 O    0 0 0

  74 TI   1     1.9432     3.6721   20 O    0 0 0
  74 TI   1     1.9438     3.6732   59 O    0 0 0
  74 TI   1     1.9493     3.6837   32 O    0 0 1
  74 TI   1     1.9563     3.6970   46 O    0 0 1
  74 TI   1     1.9613     3.7063   43 O    0 0 1
  74 TI   1     1.9635     3.7105   62 O    0 0 0

  75 TI   1     1.8720     3.5375   47 O    0 1 0
  75 TI   1     1.9298     3.6468   17 XX   0 1 0
  75 TI   1     1.9329     3.6526   42 O    0 0 0
  75 TI   1     1.9533     3.6912   58 O    0 1 0
  75 TI   1     1.9724     3.7273   29 O    0 0 0
  75 TI   1     2.0332     3.8423   63 O    0 0 0

  76 TI   1     1.9325     3.6519   57 O    1 0 0
  76 TI   1     1.9412     3.6683   18 O    0 0 0
  76 TI   1     1.9484     3.6820   30 O    1 0 0
  76 TI   1     1.9591     3.7022   64 O    0 0 0
  76 TI   1     1.9657     3.7146   48 O    1 0 0
  76 TI   1     1.9701     3.7230   41 O    0 0 0

  77 TI   1     1.8899     3.5715   63 O    0 0 0
  77 TI   1     1.9383     3.6628   43 O    0 0 0
  77 TI   1     1.9482     3.6816   27 O    0 0 0
  77 TI   1     1.9610     3.7057   21 O    0 0 0
  77 TI   1     1.9768     3.7356   57 O    0 0 0
  77 TI   1     2.0204     3.8180   45 O    0 0 0

  78 TI   1     1.9408     3.6676   28 O    0 0 0
  78 TI   1     1.9448     3.6751   22 O    0 1 0
  78 TI   1     1.9514     3.6875   44 O    0 0 0
  78 TI   1     1.9520     3.6888   64 O    0 1 0
  78 TI   1     1.9628     3.7091   46 O    0 0 0
  78 TI   1     1.9670     3.7171   58 O    0 1 0

  79 TI   1     1.8780     3.5490   61 O    0 0 0
  79 TI   1     1.9358     3.6582   25 O    0 0 0
  79 TI   1     1.9419     3.6696   23 O    0 0 0
  79 TI   1     1.9425     3.6708   41 O    0 0 0
  79 TI   1     1.9831     3.7475   59 O    0 0 0
  79 TI   1     2.0420     3.8589   47 O    0 0 0

  80 TI   1     1.9432     3.6720   26 O    0 0 0
  80 TI   1     1.9500     3.6850   24 O    0 1 0
  80 TI   1     1.9536     3.6918   62 O    0 1 0
  80 TI   1     1.9539     3.6924   60 O    0 1 0
  80 TI   1     1.9556     3.6955   48 O    0 0 0
  80 TI   1     1.9684     3.7198   42 O    0 0 0


 FINAL OPTIMIZED GEOMETRY - DIMENSIONALITY OF THE SYSTEM      3
 (NON PERIODIC DIRECTION: LATTICE PARAMETER FORMALLY SET TO 500)
 *******************************************************************************
 LATTICE PARAMETERS (ANGSTROMS AND DEGREES) - BOHR = 0.5291772083 ANGSTROM
 PRIMITIVE CELL - CENTRING CODE 1/1 VOLUME=   891.092934 - DENSITY  4.021 g/cm^3
         A              B              C           ALPHA      BETA       GAMMA 
    10.78685578    10.79754985    10.78548055   119.362339  90.245289 120.280801
 *******************************************************************************
 ATOMS IN THE ASYMMETRIC UNIT   80 - ATOMS IN THE UNIT CELL:   80
     ATOM              X/A                 Y/B                 Z/C    
 *******************************************************************************
   1 T  20 CA    1.306099405774E-01  2.375984662226E-01  3.569921395699E-01
   2 T  20 CA   -3.717475199627E-01 -2.646216026860E-01  3.571036516229E-01
   3 T  20 CA   -3.690691576153E-01  2.355410384940E-01 -1.454924911601E-01
   4 T  20 CA    1.284884240070E-01 -2.658378268948E-01 -1.442696745405E-01
   5 T  20 CA   -3.671902228711E-01 -2.229422867893E-01 -1.028152089639E-01
   6 T  20 CA    1.283794999919E-01  2.722639742720E-01 -1.054856610416E-01
   7 T  20 CA    1.299464257249E-01 -2.228332047983E-01  3.943361501826E-01
   8 T  20 CA   -3.722556200395E-01  2.721977033113E-01  3.938660556926E-01
   9 T  20 CA    3.731553038654E-01  2.286553477202E-01  1.054894855398E-01
  10 T  20 CA   -1.282123560834E-01 -2.673818705517E-01  1.107966810083E-01
  11 T  20 CA   -1.257959433701E-01  2.328703411987E-01 -3.913684925669E-01
  12 T  20 CA    3.696179361981E-01 -2.751349031961E-01 -3.946772719741E-01
  13 T  20 CA   -1.255753817228E-01 -2.338804602572E-01 -3.555951615296E-01
  14 T  20 CA    3.692508969438E-01  2.647587924306E-01 -3.555823028417E-01
  15 T  20 CA    3.716413121797E-01 -2.341052479867E-01  1.415696257454E-01
  16 T  20 CA   -1.295450857565E-01  2.647771988803E-01  1.455005987605E-01
  17 T   0 XX   -9.903914756606E-02 -4.747102379894E-01 -1.259153055155E-01
  18 T   8 O1    4.130208844788E-01  4.677473688560E-02 -1.162163897292E-01
  19 T   8 O1    4.100230188403E-01 -4.570014129612E-01  3.829044163537E-01
  20 T   8 O1   -8.771139618668E-02  4.676090679909E-02  3.844460022516E-01
  21 T   8 O1   -9.043392717985E-02  2.223093943703E-02 -1.356872803711E-01
  22 T   8 O1    4.123923234599E-01 -4.702712421741E-01 -1.325945087270E-01
  23 T   8 O1    4.078729541012E-01  2.220384223056E-02  3.626439981469E-01
  24 T   8 O1   -8.760555643625E-02 -4.703069047090E-01  3.672286623153E-01
  25 T   8 O1    8.844763005238E-02 -2.600535439346E-02  1.355251613456E-01
  26 T   8 O1   -4.119422346633E-01  4.749175966718E-01  1.369583799493E-01
  27 T   8 O1   -4.156927463615E-01 -3.479444066439E-02 -3.691145017892E-01
  28 T   8 O1    9.118434785121E-02  4.734146851527E-01 -3.677963618422E-01
  29 T   8 O1    8.544223388841E-02  4.460637174067E-01  1.126557658907E-01
  30 T   8 O1   -4.110428195385E-01 -4.379292984932E-02  1.170022163104E-01
  31 T   8 O1   -4.168519736363E-01  4.459035180648E-01 -3.894301075287E-01
  32 T   8 O1    8.926815626583E-02 -4.372660035099E-02 -3.827156293885E-01
  33 T   8 O1    1.632095877268E-01  2.472990902134E-01  1.233918482931E-01
  34 T   8 O1   -3.373134589416E-01 -2.489636843566E-01  1.261544341885E-01
  35 T   8 O1   -3.383615986743E-01  2.457781652756E-01 -3.748215377972E-01
  36 T   8 O1    1.634627444986E-01 -2.492757148704E-01 -3.747382865096E-01
  37 T   8 O1   -1.260943712698E-01  3.698564493366E-02  1.241884583964E-01
  38 T   8 O1    3.735865453967E-01 -4.621036379829E-01  1.236176183827E-01
  39 T   8 O1    3.738587987685E-01  3.736299722115E-02 -3.761458503173E-01
  40 T   8 O1   -1.210905394888E-01 -4.613656611203E-01 -3.691443238165E-01
  41 T   8 O1    3.360254915286E-01 -3.881075440617E-02  8.564914857934E-02
  42 T   8 O1   -1.649540746991E-01  4.635929994286E-01  8.514370713686E-02
  43 T   8 O1   -1.638351575063E-01 -3.895224084517E-02 -4.132604684016E-01
  44 T   8 O1    3.361824330512E-01  4.604495207677E-01 -4.132566210341E-01
  45 T   8 O1   -3.752824957256E-01 -2.534424598297E-01 -3.364135157615E-01
  46 T   8 O1    1.251610304780E-01  2.503709364953E-01 -3.356983017823E-01
  47 T   8 O1    1.153371321362E-01 -2.554126184658E-01  1.535982972099E-01
  48 T   8 O1   -3.742807133149E-01  2.508340030705E-01  1.631615888539E-01
  49 T   8 O1   -1.590245005087E-01 -2.553834166428E-01 -1.207576967445E-01
  50 T   8 O1    3.375762111140E-01  2.507445762199E-01 -1.248062431445E-01
  51 T   8 O1    3.329958220371E-01 -2.533738336231E-01  3.719288007882E-01
  52 T   8 O1   -1.639721157857E-01  2.503677815564E-01  3.752564532483E-01
  53 T   8 O1    1.255129657933E-01 -3.881594100393E-02 -1.248459326992E-01
  54 T   8 O1   -3.718750767472E-01  4.636244912330E-01 -1.214763274335E-01
  55 T   8 O1   -3.757337832832E-01 -3.890701523280E-02  3.749120791819E-01
  56 T   8 O1    1.234974986926E-01  4.603520882981E-01  3.742331724131E-01
  57 T   8 O1   -3.364552791667E-01  3.729947357556E-02 -8.652872942534E-02
  58 T   8 O1    1.578818495243E-01 -4.614958375029E-01 -9.041088309019E-02
  59 T   8 O1    1.628545389451E-01  3.713259217450E-02  4.130600679416E-01
  60 T   8 O1   -3.354810273957E-01 -4.619668428118E-01  4.143432118117E-01
  61 T   8 O1    3.740187456464E-01  2.472969696760E-01  3.339090266383E-01
  62 T   8 O1   -1.248821784043E-01 -2.488578117041E-01  3.382992046616E-01
  63 T   8 O1   -1.294320439105E-01  2.457354185066E-01 -1.659111305836E-01
  64 T   8 O1    3.754780880767E-01 -2.492101113468E-01 -1.627391523809E-01
  65 T  22 TI    6.843394949895E-03  6.989106864937E-03  3.243235303845E-03
  66 T  22 TI   -4.990696607449E-01 -4.989682278683E-01  8.360500565747E-04
  67 T  22 TI   -4.957232148146E-01  3.898700984646E-03 -4.984582030445E-01
  68 T  22 TI    1.417166796252E-03 -4.989102355840E-01  4.998306819175E-01
  69 T  22 TI   -2.494769813651E-01 -4.955014440209E-01 -2.465850799105E-01
  70 T  22 TI    2.519545541656E-01  9.273808955294E-04 -2.505576162097E-01
  71 T  22 TI    2.514375445104E-01 -4.941957321294E-01  2.516296003763E-01
  72 T  22 TI   -2.488556113931E-01  1.788029404549E-03  2.507464662541E-01
  73 T  22 TI   -4.962178758127E-01 -4.943727797490E-01 -4.952268678619E-01
  74 T  22 TI    9.750804470750E-04  1.644024316982E-03 -4.995297554051E-01
  75 T  22 TI    5.040141111867E-04 -4.957403082875E-01  4.343630066875E-03
  76 T  22 TI   -4.985287788589E-01  8.143837696019E-04 -1.146129139032E-03
  77 T  22 TI   -2.475523553424E-01  3.982651476051E-03 -2.502845799356E-01
  78 T  22 TI    2.509102131685E-01 -4.989478968931E-01 -2.498329481603E-01
  79 T  22 TI    2.538845111391E-01  7.037390790695E-03  2.501776918296E-01
  80 T  22 TI   -2.501032689849E-01 -4.989204897979E-01  2.506590658820E-01

 T = ATOM BELONGING TO THE ASYMMETRIC UNIT
 INFORMATION **** fort.34 **** GEOMETRY OUTPUT FILE

 DIRECT LATTICE VECTORS CARTESIAN COMPONENTS (ANGSTROM)
          X                    Y                    Z
  -0.544185068001E+01   0.761111601610E+01   0.536781443592E+01
   0.545365914413E+01  -0.761025003066E+01   0.537854806062E+01
   0.544169804806E+01   0.761014255858E+01  -0.536658581394E+01


 CARTESIAN COORDINATES - PRIMITIVE CELL
 *******************************************************************************
 *      ATOM          X(ANGSTROM)         Y(ANGSTROM)         Z(ANGSTROM)
 *******************************************************************************
    1    20 CA    2.527664683071E+00  1.902664750156E+00  6.319574230760E-02
    2    20 CA    2.523088715070E+00  1.902032753863E+00 -5.335179103003E+00
    3    20 CA    2.501253579584E+00 -5.708772970927E+00  6.657198278394E-02
    4    20 CA   -2.934075719397E+00  1.903119841986E+00  3.411607772053E-02
    5    20 CA    2.228538011309E-01 -1.880519238782E+00 -2.618348141412E+00
    6    20 CA    2.121917277867E-01 -1.897646568437E+00  2.719600056249E+00
    7    20 CA    2.234528685702E-01  5.685808044611E+00 -2.617229591102E+00
    8    20 CA    5.653533139183E+00 -1.907396458928E+00 -2.647886648924E+00
    9    20 CA   -2.096051885861E-01  1.902793966134E+00  2.666743827340E+00
   10    20 CA   -1.575750033955E-01  1.902182309207E+00 -2.720946273679E+00
   11    20 CA   -1.751509564300E-01 -5.708019061964E+00  2.677567641462E+00
   12    20 CA   -5.659612138643E+00  1.903500095163E+00  2.622283642567E+00
   13    20 CA   -2.527183330691E+00 -1.882009891598E+00 -2.367069336878E-02
   14    20 CA   -2.500475558598E+00 -1.910501208459E+00  5.314351126769E+00
   15    20 CA   -2.528767597691E+00  5.687569647932E+00 -2.399027224826E-02
   16    20 CA    2.940739929113E+00 -1.893723063978E+00 -5.209854112111E-02
   17     0 XX   -2.735144649938E+00  1.900631735672E+00 -2.409140303581E+00
   18     8 O1   -2.624919010669E+00  1.903159132539E+00  3.092284864871E+00
   19     8 O1   -2.639963763503E+00  9.512584977429E+00 -2.311965992693E+00
   20     8 O1    2.824369427974E+00  1.902245078501E+00 -2.282475175979E+00
   21     8 O1   -1.250013144798E-01 -1.890085666100E+00  3.623150703541E-01
   22     8 O1   -5.530415785276E+00  5.708584439279E+00  3.958487991106E-01
   23     8 O1   -1.250923885578E-01  5.695164106391E+00  3.626506276447E-01
   24     8 O1   -8.980969963417E-02  5.707039554108E+00 -4.970582790377E+00
   25     8 O1    1.143438714281E-01  1.902458220863E+00 -3.924079913305E-01
   26     8 O1    5.577052972458E+00 -5.707308998580E+00 -3.918612543942E-01
   27     8 O1    6.377117106821E-02 -5.708105305532E+00 -4.376204471582E-01
   28     8 O1    8.419397696667E-02 -5.707772217998E+00  5.009555033304E+00
   29     8 O1    2.580754254062E+00 -1.887019225797E+00  2.253236363585E+00
   30     8 O1    2.634692666812E+00 -1.904815895571E+00 -3.069846392660E+00
   31     8 O1    2.581090938892E+00 -9.529764629809E+00  2.250639551170E+00
   32     8 O1   -2.806876844130E+00 -1.900319843500E+00  2.297865543807E+00
   33     8 O1    1.131983918726E+00  2.992287543280E-01  1.543995880534E+00
   34     8 O1    1.164340740447E+00  2.873972452838E-01 -3.826717792878E+00
   35     8 O1    1.142038003713E+00 -7.298188009392E+00  1.517179347765E+00
   36     8 O1   -4.288217231351E+00  2.893726469260E-01  1.547761439203E+00
   37     8 O1    1.563689932381E+00 -2.960970216748E-01 -1.144390136647E+00
   38     8 O1   -3.880468174269E+00  7.300882462840E+00 -1.143507931598E+00
   39     8 O1   -3.877590846316E+00 -3.013826034154E-01  4.226382317553E+00
   40     8 O1   -3.865946368261E+00 -2.197670367510E-01 -1.150424236284E+00
   41     8 O1   -1.574184370589E+00  3.504690776011E+00  1.135333470679E+00
   42     8 O1    3.889259988990E+00 -4.135587488701E+00  1.151083353692E+00
   43     8 O1   -1.569704465428E+00 -4.095503177573E+00  1.128854544160E+00
   44     8 O1   -1.567137610591E+00 -4.090354278361E+00  6.498891914131E+00
   45     8 O1   -1.170618256064E+00 -3.487712939669E+00 -1.572207247593E+00
   46     8 O1   -1.142438685122E+00 -3.507482236716E+00  3.820027045245E+00
   47     8 O1   -1.184745259054E+00  3.990503119686E+00 -1.578939163681E+00
   48     8 O1    4.292619008354E+00 -3.515920459922E+00 -1.535567343389E+00
   49     8 O1   -1.184513441864E+00 -1.858055557103E-01 -1.579149447520E+00
   50     8 O1   -1.148721772768E+00 -2.886905143330E-01  3.830471627328E+00
   51     8 O1   -1.170003835945E+00  7.293139255141E+00 -1.571311386921E+00
   52     8 O1    4.299764620234E+00 -2.976171086675E-01 -1.547402702864E+00
   53     8 O1   -1.574085598124E+00  3.005974146925E-01  1.134953316825E+00
   54     8 O1    3.891101091448E+00 -7.283134820502E+00  1.149383338389E+00
   55     8 O1    3.872659874145E+00  2.894730676415E-01 -4.238130322908E+00
   56     8 O1    3.875012352467E+00  2.845270883779E-01  1.130583053820E+00
   57     8 O1    1.563494786846E+00 -3.503154450229E+00 -1.141048641457E+00
   58     8 O1   -3.867999170405E+00  4.025716075908E+00 -1.149499308120E+00
   59     8 O1    1.564026582808E+00  4.100362481219E+00 -1.142829924192E+00
   60     8 O1    1.560958607421E+00  4.115509069033E+00 -6.509119170919E+00
   61     8 O1    1.130351313146E+00  3.505803588567E+00  1.545810413327E+00
   62     8 O1    1.163326608751E+00  3.517882595903E+00 -3.824349773143E+00
   63     8 O1    1.141668792895E+00 -4.117837634425E+00  1.517308884626E+00
   64     8 O1   -4.287980019338E+00  3.515890397891E+00  1.548461767019E+00
   65    22 TI    1.852418032396E-02  2.357850518776E-02  5.692022080369E-02
   66    22 TI    1.101793023535E-02  6.024328944090E-03  5.379237838375E+00
   67    22 TI    6.302237417953E-03  7.625243600904E+00  3.626646519472E-02
   68    22 TI    5.444988411795E+00  1.150570437336E-03  2.035822202933E-02
   69    22 TI    2.767138095672E+00 -7.614706010564E+00  2.697643579623E+00
   70    22 TI   -2.729500333671E+00  3.818563555582E-03  2.702072204489E+00
   71    22 TI    2.759490803242E+00 -2.063949217513E-02  2.719770801414E+00
   72    22 TI    2.728472936968E+00  5.400738541970E-04 -2.671846169904E+00
   73    22 TI    2.762834386030E+00  3.827790120923E+00  2.714840933454E+00
   74    22 TI    2.727067659181E+00  3.803559921996E+00 -2.671740000242E+00
   75    22 TI    2.770954432446E+00 -3.800650580411E+00  2.691579977632E+00
   76    22 TI   -2.730727022977E+00  3.801835772594E+00  2.702335462661E+00
   77    22 TI    6.889866801273E-03 -3.819160003613E+00  3.577945185171E-02
   78    22 TI    7.636003296562E-03 -3.804689392314E+00  5.382522237252E+00
   79    22 TI    1.816938834932E-02  3.782676065291E+00  5.805583659953E-02
   80    22 TI    5.457752446685E+00 -3.809354129165E+00  7.388902987260E-03

 ****    1 SYMMOPS - TRANSLATORS IN FRACTIONAL UNITS
 **** MATRICES AND TRANSLATORS IN THE CRYSTALLOGRAPHIC REFERENCE FRAME
   V INV                    ROTATION MATRICES                   TRANSLATORS
   1   1  1.00  0.00  0.00  0.00  1.00  0.00  0.00  0.00  1.00  0.00  0.00  0.00
 TTTTTTTTTTTTTTTTTTTTTTTTTTTTTT END         TELAPSE    70457.57 TCPU    67068.64
 EEEEEEEEEE TERMINATION  DATE 17 02 2020 TIME 10:26:55.5
NODE    0 CPU TIME =     67068.639
    TOTAL CPU TIME =   4327687.039
